 Entering Gaussian System, Link 0=g16
 Initial command:
 /arc/software/Gaussian/g16.c01/l1.exe "/tmp/slurm/1150902/Gau-177063.inp" -scrdir="/tmp/slurm/1150902/"
 Entering Link 1 = /arc/software/Gaussian/g16.c01/l1.exe PID=    177064.
  
 Copyright (c) 1988-2019, Gaussian, Inc.  All Rights Reserved.
  
 This is part of the Gaussian(R) 16 program.  It is based on
 the Gaussian(R) 09 system (copyright 2009, Gaussian, Inc.),
 the Gaussian(R) 03 system (copyright 2003, Gaussian, Inc.),
 the Gaussian(R) 98 system (copyright 1998, Gaussian, Inc.),
 the Gaussian(R) 94 system (copyright 1995, Gaussian, Inc.),
 the Gaussian 92(TM) system (copyright 1992, Gaussian, Inc.),
 the Gaussian 90(TM) system (copyright 1990, Gaussian, Inc.),
 the Gaussian 88(TM) system (copyright 1988, Gaussian, Inc.),
 the Gaussian 86(TM) system (copyright 1986, Carnegie Mellon
 University), and the Gaussian 82(TM) system (copyright 1983,
 Carnegie Mellon University). Gaussian is a federally registered
 trademark of Gaussian, Inc.
  
 This software contains proprietary and confidential information,
 including trade secrets, belonging to Gaussian, Inc.
  
 This software is provided under written license and may be
 used, copied, transmitted, or stored only in accord with that
 written license.
  
 The following legend is applicable only to US Government
 contracts under FAR:
  
                    RESTRICTED RIGHTS LEGEND
  
 Use, reproduction and disclosure by the US Government is
 subject to restrictions as set forth in subparagraphs (a)
 and (c) of the Commercial Computer Software - Restricted
 Rights clause in FAR 52.227-19.
  
 Gaussian, Inc.
 340 Quinnipiac St., Bldg. 40, Wallingford CT 06492
  
  
 ---------------------------------------------------------------
 Warning -- This program may not be used in any manner that
 competes with the business of Gaussian, Inc. or will provide
 assistance to any competitor of Gaussian, Inc.  The licensee
 of this program is prohibited from giving any competitor of
 Gaussian, Inc. access to this program.  By using this program,
 the user acknowledges that Gaussian, Inc. is engaged in the
 business of creating and licensing software in the field of
 computational chemistry and represents and warrants to the
 licensee that it is not a competitor of Gaussian, Inc. and that
 it will not use this program in any manner prohibited above.
 ---------------------------------------------------------------
  

 Cite this work as:
 Gaussian 16, Revision C.01,
 M. J. Frisch, G. W. Trucks, H. B. Schlegel, G. E. Scuseria, 
 M. A. Robb, J. R. Cheeseman, G. Scalmani, V. Barone, 
 G. A. Petersson, H. Nakatsuji, X. Li, M. Caricato, A. V. Marenich, 
 J. Bloino, B. G. Janesko, R. Gomperts, B. Mennucci, H. P. Hratchian, 
 J. V. Ortiz, A. F. Izmaylov, J. L. Sonnenberg, D. Williams-Young, 
 F. Ding, F. Lipparini, F. Egidi, J. Goings, B. Peng, A. Petrone, 
 T. Henderson, D. Ranasinghe, V. G. Zakrzewski, J. Gao, N. Rega, 
 G. Zheng, W. Liang, M. Hada, M. Ehara, K. Toyota, R. Fukuda, 
 J. Hasegawa, M. Ishida, T. Nakajima, Y. Honda, O. Kitao, H. Nakai, 
 T. Vreven, K. Throssell, J. A. Montgomery, Jr., J. E. Peralta, 
 F. Ogliaro, M. J. Bearpark, J. J. Heyd, E. N. Brothers, K. N. Kudin, 
 V. N. Staroverov, T. A. Keith, R. Kobayashi, J. Normand, 
 K. Raghavachari, A. P. Rendell, J. C. Burant, S. S. Iyengar, 
 J. Tomasi, M. Cossi, J. M. Millam, M. Klene, C. Adamo, R. Cammi, 
 J. W. Ochterski, R. L. Martin, K. Morokuma, O. Farkas, 
 J. B. Foresman, and D. J. Fox, Gaussian, Inc., Wallingford CT, 2019.
 
 ******************************************
 Gaussian 16:  ES64L-G16RevC.01  3-Jul-2019
                10-Jun-2024 
 ******************************************
 %chk=ground_state_opt.chk
 %mem=128GB
 %nprocshared=4
 Will use up to    4 processors via shared memory.
 -------------------------------------------------------------
 # opt B3LYP/6-311g* scrf=(solvent=water) int=ultrafine Nosymm
 -------------------------------------------------------------
 1/18=20,19=15,26=6,38=1/1,3;
 2/9=110,12=2,15=1,17=6,18=5,40=1/2;
 3/5=4,6=6,7=1,11=2,25=1,30=1,70=2201,71=1,72=1,74=-5,75=-5/1,2,3;
 4//1;
 5/5=2,38=5,53=1/2;
 6/7=2,8=2,9=2,10=2,28=1/1;
 7/30=1/1,2,3,16;
 1/18=20,19=15,26=6/3(2);
 2/9=110,15=1/2;
 99//99;
 2/9=110,15=1/2;
 3/5=4,6=6,7=1,11=2,25=1,30=1,70=2205,71=1,72=1,74=-5,75=-5/1,2,3;
 4/5=5,16=3,69=1/1;
 5/5=2,38=5,53=1/2;
 7/30=1/1,2,3,16;
 1/18=20,19=15,26=6/3(-5);
 2/9=110,15=1/2;
 6/7=2,8=2,9=2,10=2,19=2,28=1/1;
 99/9=1/99;
 -------------------------------------
 PN ground state geometry optimization
 -------------------------------------
 Symbolic Z-matrix:
 Charge =  0 Multiplicity = 1
 O                     0.94821   0.03052   0.05499 
 C                     4.36541  -1.16473   0.06727 
 C                     2.96079  -1.23198   0.06119 
 C                     5.11014  -2.36735   0.06983 
 C                     5.03904   0.07211   0.07002 
 C                     2.29702  -2.463     0.05754 
 C                     4.43037  -3.59685   0.06594 
 C                     2.17387   0.02558   0.05767 
 C                     6.51181  -2.3051    0.07496 
 C                     4.26738   1.3182    0.06441 
 C                     6.43659   0.11078   0.07563 
 C                     3.03447  -3.64424   0.05943 
 C                     2.92894   1.30214   0.05734 
 C                     7.17002  -1.07407   0.07801 
 H                     1.20971  -2.50017   0.05272 
 H                     4.98701  -4.53226   0.06752 
 H                     7.10471  -3.21739   0.07639 
 H                     4.80592   2.26009   0.06486 
 H                     6.96515   1.06096   0.07724 
 H                     2.52285  -4.60347   0.05563 
 H                     2.33979   2.21126   0.05141 
 H                     8.25679  -1.03925   0.08141 
 

 GradGradGradGradGradGradGradGradGradGradGradGradGradGradGradGradGradGrad
 Berny optimization.
 Initialization pass.
                           ----------------------------
                           !    Initial Parameters    !
                           ! (Angstroms and Degrees)  !
 --------------------------                            --------------------------
 ! Name  Definition              Value          Derivative Info.                !
 --------------------------------------------------------------------------------
 ! R1    R(1,8)                  1.2257         estimate D2E/DX2                !
 ! R2    R(2,3)                  1.4062         estimate D2E/DX2                !
 ! R3    R(2,4)                  1.4145         estimate D2E/DX2                !
 ! R4    R(2,5)                  1.4084         estimate D2E/DX2                !
 ! R5    R(3,6)                  1.3986         estimate D2E/DX2                !
 ! R6    R(3,8)                  1.4835         estimate D2E/DX2                !
 ! R7    R(4,7)                  1.4049         estimate D2E/DX2                !
 ! R8    R(4,9)                  1.4031         estimate D2E/DX2                !
 ! R9    R(5,10)                 1.4657         estimate D2E/DX2                !
 ! R10   R(5,11)                 1.3981         estimate D2E/DX2                !
 ! R11   R(6,12)                 1.3925         estimate D2E/DX2                !
 ! R12   R(6,15)                 1.088          estimate D2E/DX2                !
 ! R13   R(7,12)                 1.3967         estimate D2E/DX2                !
 ! R14   R(7,16)                 1.0885         estimate D2E/DX2                !
 ! R15   R(8,13)                 1.4832         estimate D2E/DX2                !
 ! R16   R(9,14)                 1.396          estimate D2E/DX2                !
 ! R17   R(9,17)                 1.088          estimate D2E/DX2                !
 ! R18   R(10,13)                1.3386         estimate D2E/DX2                !
 ! R19   R(10,18)                1.085          estimate D2E/DX2                !
 ! R20   R(11,14)                1.3935         estimate D2E/DX2                !
 ! R21   R(11,19)                1.0873         estimate D2E/DX2                !
 ! R22   R(12,20)                1.0871         estimate D2E/DX2                !
 ! R23   R(13,21)                1.0833         estimate D2E/DX2                !
 ! R24   R(14,22)                1.0873         estimate D2E/DX2                !
 ! A1    A(3,2,4)              119.0272         estimate D2E/DX2                !
 ! A2    A(3,2,5)              121.3157         estimate D2E/DX2                !
 ! A3    A(4,2,5)              119.6571         estimate D2E/DX2                !
 ! A4    A(2,3,6)              121.0751         estimate D2E/DX2                !
 ! A5    A(2,3,8)              119.2955         estimate D2E/DX2                !
 ! A6    A(6,3,8)              119.6294         estimate D2E/DX2                !
 ! A7    A(2,4,7)              119.2939         estimate D2E/DX2                !
 ! A8    A(2,4,9)              119.2254         estimate D2E/DX2                !
 ! A9    A(7,4,9)              121.4807         estimate D2E/DX2                !
 ! A10   A(2,5,10)             119.6563         estimate D2E/DX2                !
 ! A11   A(2,5,11)             120.1595         estimate D2E/DX2                !
 ! A12   A(10,5,11)            120.184          estimate D2E/DX2                !
 ! A13   A(3,6,12)             119.6893         estimate D2E/DX2                !
 ! A14   A(3,6,15)             120.2919         estimate D2E/DX2                !
 ! A15   A(12,6,15)            120.0187         estimate D2E/DX2                !
 ! A16   A(4,7,12)             120.8822         estimate D2E/DX2                !
 ! A17   A(4,7,16)             120.3062         estimate D2E/DX2                !
 ! A18   A(12,7,16)            118.8115         estimate D2E/DX2                !
 ! A19   A(1,8,3)              122.2674         estimate D2E/DX2                !
 ! A20   A(1,8,13)             120.3728         estimate D2E/DX2                !
 ! A21   A(3,8,13)             117.3598         estimate D2E/DX2                !
 ! A22   A(4,9,14)             120.6758         estimate D2E/DX2                !
 ! A23   A(4,9,17)             120.4771         estimate D2E/DX2                !
 ! A24   A(14,9,17)            118.8471         estimate D2E/DX2                !
 ! A25   A(5,10,13)            121.0816         estimate D2E/DX2                !
 ! A26   A(5,10,18)            118.4718         estimate D2E/DX2                !
 ! A27   A(13,10,18)           120.4466         estimate D2E/DX2                !
 ! A28   A(5,11,14)            120.173          estimate D2E/DX2                !
 ! A29   A(5,11,19)            120.6711         estimate D2E/DX2                !
 ! A30   A(14,11,19)           119.1559         estimate D2E/DX2                !
 ! A31   A(6,12,7)             120.0322         estimate D2E/DX2                !
 ! A32   A(6,12,20)            119.9489         estimate D2E/DX2                !
 ! A33   A(7,12,20)            120.0188         estimate D2E/DX2                !
 ! A34   A(8,13,10)            121.2907         estimate D2E/DX2                !
 ! A35   A(8,13,21)            116.4508         estimate D2E/DX2                !
 ! A36   A(10,13,21)           122.2585         estimate D2E/DX2                !
 ! A37   A(9,14,11)            120.1092         estimate D2E/DX2                !
 ! A38   A(9,14,22)            119.968          estimate D2E/DX2                !
 ! A39   A(11,14,22)           119.9228         estimate D2E/DX2                !
 ! D1    D(4,2,3,6)             -0.0064         estimate D2E/DX2                !
 ! D2    D(4,2,3,8)           -179.9642         estimate D2E/DX2                !
 ! D3    D(5,2,3,6)            179.9549         estimate D2E/DX2                !
 ! D4    D(5,2,3,8)             -0.0029         estimate D2E/DX2                !
 ! D5    D(3,2,4,7)              0.0143         estimate D2E/DX2                !
 ! D6    D(3,2,4,9)            179.9563         estimate D2E/DX2                !
 ! D7    D(5,2,4,7)           -179.9477         estimate D2E/DX2                !
 ! D8    D(5,2,4,9)             -0.0057         estimate D2E/DX2                !
 ! D9    D(3,2,5,10)            -0.0942         estimate D2E/DX2                !
 ! D10   D(3,2,5,11)          -179.979          estimate D2E/DX2                !
 ! D11   D(4,2,5,10)           179.867          estimate D2E/DX2                !
 ! D12   D(4,2,5,11)            -0.0179         estimate D2E/DX2                !
 ! D13   D(2,3,6,12)            -0.0243         estimate D2E/DX2                !
 ! D14   D(2,3,6,15)          -179.9925         estimate D2E/DX2                !
 ! D15   D(8,3,6,12)           179.9333         estimate D2E/DX2                !
 ! D16   D(8,3,6,15)            -0.0348         estimate D2E/DX2                !
 ! D17   D(2,3,8,1)           -179.8546         estimate D2E/DX2                !
 ! D18   D(2,3,8,13)             0.1518         estimate D2E/DX2                !
 ! D19   D(6,3,8,1)              0.187          estimate D2E/DX2                !
 ! D20   D(6,3,8,13)          -179.8066         estimate D2E/DX2                !
 ! D21   D(2,4,7,12)             0.0084         estimate D2E/DX2                !
 ! D22   D(2,4,7,16)           179.9812         estimate D2E/DX2                !
 ! D23   D(9,4,7,12)          -179.9322         estimate D2E/DX2                !
 ! D24   D(9,4,7,16)             0.0406         estimate D2E/DX2                !
 ! D25   D(2,4,9,14)             0.0229         estimate D2E/DX2                !
 ! D26   D(2,4,9,17)          -179.9625         estimate D2E/DX2                !
 ! D27   D(7,4,9,14)           179.9635         estimate D2E/DX2                !
 ! D28   D(7,4,9,17)            -0.0218         estimate D2E/DX2                !
 ! D29   D(2,5,10,13)            0.0324         estimate D2E/DX2                !
 ! D30   D(2,5,10,18)         -179.8924         estimate D2E/DX2                !
 ! D31   D(11,5,10,13)         179.9172         estimate D2E/DX2                !
 ! D32   D(11,5,10,18)          -0.0076         estimate D2E/DX2                !
 ! D33   D(2,5,11,14)            0.0247         estimate D2E/DX2                !
 ! D34   D(2,5,11,19)          179.9665         estimate D2E/DX2                !
 ! D35   D(10,5,11,14)        -179.8596         estimate D2E/DX2                !
 ! D36   D(10,5,11,19)           0.0823         estimate D2E/DX2                !
 ! D37   D(3,6,12,7)             0.047          estimate D2E/DX2                !
 ! D38   D(3,6,12,20)         -179.9405         estimate D2E/DX2                !
 ! D39   D(15,6,12,7)         -179.9847         estimate D2E/DX2                !
 ! D40   D(15,6,12,20)           0.0277         estimate D2E/DX2                !
 ! D41   D(4,7,12,6)            -0.0394         estimate D2E/DX2                !
 ! D42   D(4,7,12,20)          179.9481         estimate D2E/DX2                !
 ! D43   D(16,7,12,6)          179.9874         estimate D2E/DX2                !
 ! D44   D(16,7,12,20)          -0.025          estimate D2E/DX2                !
 ! D45   D(1,8,13,10)          179.7908         estimate D2E/DX2                !
 ! D46   D(1,8,13,21)           -0.1913         estimate D2E/DX2                !
 ! D47   D(3,8,13,10)           -0.2154         estimate D2E/DX2                !
 ! D48   D(3,8,13,21)          179.8025         estimate D2E/DX2                !
 ! D49   D(4,9,14,11)           -0.0164         estimate D2E/DX2                !
 ! D50   D(4,9,14,22)         -179.9653         estimate D2E/DX2                !
 ! D51   D(17,9,14,11)         179.9692         estimate D2E/DX2                !
 ! D52   D(17,9,14,22)           0.0203         estimate D2E/DX2                !
 ! D53   D(5,10,13,8)            0.1252         estimate D2E/DX2                !
 ! D54   D(5,10,13,21)        -179.8938         estimate D2E/DX2                !
 ! D55   D(18,10,13,8)        -179.9515         estimate D2E/DX2                !
 ! D56   D(18,10,13,21)          0.0295         estimate D2E/DX2                !
 ! D57   D(5,11,14,9)           -0.0076         estimate D2E/DX2                !
 ! D58   D(5,11,14,22)         179.9413         estimate D2E/DX2                !
 ! D59   D(19,11,14,9)        -179.9503         estimate D2E/DX2                !
 ! D60   D(19,11,14,22)         -0.0013         estimate D2E/DX2                !
 --------------------------------------------------------------------------------
 Trust Radius=3.00D-01 FncErr=5.00D-06 GrdErr=5.00D-06 EigMax=2.50D+02 EigMin=1.00D-04
 Number of steps in this run=    132 maximum allowed number of steps=    132.
 GradGradGradGradGradGradGradGradGradGradGradGradGradGradGradGradGradGrad

                          Input orientation:                          
 ---------------------------------------------------------------------
 Center     Atomic      Atomic             Coordinates (Angstroms)
 Number     Number       Type             X           Y           Z
 ---------------------------------------------------------------------
      1          8           0        0.948210    0.030520    0.054990
      2          6           0        4.365410   -1.164730    0.067270
      3          6           0        2.960790   -1.231980    0.061190
      4          6           0        5.110140   -2.367350    0.069830
      5          6           0        5.039040    0.072110    0.070020
      6          6           0        2.297020   -2.463000    0.057540
      7          6           0        4.430370   -3.596850    0.065940
      8          6           0        2.173870    0.025580    0.057670
      9          6           0        6.511810   -2.305100    0.074960
     10          6           0        4.267380    1.318200    0.064410
     11          6           0        6.436590    0.110780    0.075630
     12          6           0        3.034470   -3.644240    0.059430
     13          6           0        2.928940    1.302140    0.057340
     14          6           0        7.170020   -1.074070    0.078010
     15          1           0        1.209710   -2.500170    0.052720
     16          1           0        4.987010   -4.532260    0.067520
     17          1           0        7.104710   -3.217390    0.076390
     18          1           0        4.805920    2.260090    0.064860
     19          1           0        6.965150    1.060960    0.077240
     20          1           0        2.522850   -4.603470    0.055630
     21          1           0        2.339790    2.211260    0.051410
     22          1           0        8.256790   -1.039250    0.081410
 ---------------------------------------------------------------------
                    Distance matrix (angstroms):
                    1          2          3          4          5
     1  O    0.000000
     2  C    3.620225   0.000000
     3  C    2.375799   1.406242   0.000000
     4  C    4.803297   1.414540   2.430812   0.000000
     5  C    4.091069   1.408388   2.453539   2.440496   0.000000
     6  C    2.834949   2.442097   1.398576   2.814772   3.734382
     7  C    5.028257   2.432988   2.784295   1.404910   3.719108
     8  C    1.225673   2.493948   1.483480   3.787868   2.865574
     9  C    6.034001   2.430542   3.709652   1.403061   2.796463
    10  C    3.560210   2.484866   2.865415   3.780681   1.465684
    11  C    5.489006   2.432444   3.726177   2.810806   1.398096
    12  C    4.225679   2.814149   2.413386   2.436999   4.222519
    13  C    2.353787   2.854644   2.534323   4.268834   2.442469
    14  C    6.319143   2.806095   4.212225   2.432231   2.419683
    15  H    2.544166   3.426668   2.162096   3.902728   4.613100
    16  H    6.093523   3.424419   3.872655   2.168410   4.604665
    17  H    6.960738   3.423048   4.595014   2.168161   3.884307
    18  H    4.455671   3.453034   3.949566   4.637432   2.200370
    19  H    6.104578   3.422345   4.614405   3.898003   2.165127
    20  H    4.894216   3.901294   3.399819   3.419723   5.309658
    21  H    2.586916   3.937092   3.498805   5.351528   3.444163
    22  H    7.386504   3.893428   5.299544   3.415463   3.404286
                    6          7          8          9         10
     6  C    0.000000
     7  C    2.415961   0.000000
     8  C    2.491625   4.267770   0.000000
     9  C    4.217783   2.449713   4.924438   0.000000
    10  C    4.263782   4.917752   2.460426   4.262145   0.000000
    11  C    4.874496   4.215630   4.263609   2.417051   2.482632
    12  C    1.392539   1.396719   3.769379   3.726316   5.113306
    13  C    3.817801   5.123911   1.483151   5.084235   1.338555
    14  C    5.067117   3.724278   5.115775   1.395953   3.761444
    15  H    1.087956   3.402283   2.703524   5.305734   4.891772
    16  H    3.393815   1.088505   5.356096   2.699132   5.894553
    17  H    4.866553   2.701147   5.901728   1.088028   5.349968
    18  H    5.348104   5.868968   3.452647   4.873512   1.084980
    19  H    5.848942   5.302870   4.901914   3.396451   2.710037
    20  H    2.152351   2.156855   4.642186   4.603768   6.173300
    21  H    4.674460   6.172915   2.191978   6.148481   2.124460
    22  H    6.127519   4.602504   6.175463   2.155777   4.633924
                   11         12         13         14         15
    11  C    0.000000
    12  C    5.067036   0.000000
    13  C    3.704495   4.947506   0.000000
    14  C    1.393483   4.869178   4.861436   0.000000
    15  H    5.842761   2.153762   4.172929   6.128597   0.000000
    16  H    4.864069   2.145008   6.186758   4.089587   4.289243
    17  H    3.394569   4.092596   6.153338   2.144315   5.938517
    18  H    2.697913   6.164347   2.107316   4.087269   5.965983
    19  H    1.087300   6.131025   4.043458   2.144837   6.768112
    20  H    6.127146   1.087148   5.919556   5.835525   2.479560
    21  H    4.603952   5.896569   1.083343   5.841680   4.845065
    22  H    2.153075   5.836016   5.819680   1.087333   7.196975
                   16         17         18         19         20
    16  H    0.000000
    17  H    2.492712   0.000000
    18  H    6.794764   5.940316   0.000000
    19  H    5.932726   4.280626   2.469887   0.000000
    20  H    2.465217   4.786971   7.233322   7.198629   0.000000
    21  H    7.244522   7.223249   2.466650   4.766321   6.817190
    22  H    4.784639   2.464063   4.774350   2.465610   6.751474
                   21         22
    21  H    0.000000
    22  H    6.751119   0.000000
 Symmetry turned off by external request.
 Stoichiometry    C13H8O
 Framework group  C1[X(C13H8O)]
 Deg. of freedom    60
 Full point group                 C1      NOp   1
 Rotational constants (GHZ):           1.1048724           0.7985415           0.4635288
 Standard basis: 6-311G(d) (5D, 7F)
   276 basis functions,   488 primitive gaussians,   290 cartesian basis functions
    47 alpha electrons       47 beta electrons
       nuclear repulsion energy       790.8196923922 Hartrees.
 NAtoms=   22 NActive=   22 NUniq=   22 SFac= 1.00D+00 NAtFMM=   60 NAOKFM=F Big=F
 Integral buffers will be    131072 words long.
 Raffenetti 2 integral format.
 Two-electron integral symmetry is turned off.
 ------------------------------------------------------------------------------
 Polarizable Continuum Model (PCM)
 =================================
 Model                : PCM.
 Atomic radii         : UFF (Universal Force Field).
 Polarization charges : Total charges.
 Charge compensation  : None.
 Solution method      : On-the-fly selection.
 Cavity type          : Scaled VdW (van der Waals Surface) (Alpha=1.100).
 Cavity algorithm     : GePol (No added spheres)
                        Default sphere list used, NSphG=   22.
                        Lebedev-Laikov grids with approx.  5.0 points / Ang**2.
                        Smoothing algorithm: York/Karplus (Gamma=1.0000).
                        Polarization charges: spherical gaussians, with
                                              point-specific exponents (IZeta= 3).
                        Self-potential: point-specific (ISelfS= 7).
                        Self-field    : sphere-specific E.n sum rule (ISelfD= 2).
 1st derivatives      : Analytical E(r).r(x)/FMM algorithm (CHGder, D1EAlg=3).
                        Cavity 1st derivative terms included.
 Solvent              : Water, Eps=  78.355300 Eps(inf)=   1.777849
 ------------------------------------------------------------------------------
 One-electron integrals computed using PRISM.
 NBasis=   276 RedAO= T EigKep=  6.94D-05  NBF=   276
 NBsUse=   276 1.00D-06 EigRej= -1.00D+00 NBFU=   276
 ExpMin= 1.03D-01 ExpMax= 8.59D+03 ExpMxC= 1.30D+03 IAcc=3 IRadAn=         5 AccDes= 0.00D+00
 Harris functional with IExCor=  402 and IRadAn=       5 diagonalized for initial guess.
 HarFok:  IExCor=  402 AccDes= 0.00D+00 IRadAn=         5 IDoV= 1 UseB2=F ITyADJ=14
 ICtDFT=  3500011 ScaDFX=  1.000000  1.000000  1.000000  1.000000
 FoFCou: FMM=F IPFlag=           0 FMFlag=      100000 FMFlg1=           0
         NFxFlg=           0 DoJE=T BraDBF=F KetDBF=T FulRan=T
         wScrn=  0.000000 ICntrl=       500 IOpCl=  0 I1Cent=   200000004 NGrid=           0
         NMat0=    1 NMatS0=      1 NMatT0=    0 NMatD0=    1 NMtDS0=    0 NMtDT0=    0
 Symmetry not used in FoFCou.
 Keep R1 ints in memory in canonical form, NReq=742955085.
 Requested convergence on RMS density matrix=1.00D-08 within 128 cycles.
 Requested convergence on MAX density matrix=1.00D-06.
 Requested convergence on             energy=1.00D-06.
 No special actions if energy rises.
 Inv3:  Mode=1 IEnd=     9590832.
 Iteration    1 A*A^-1 deviation from unit magnitude is 7.99D-15 for    430.
 Iteration    1 A*A^-1 deviation from orthogonality  is 2.38D-15 for   1785   1494.
 Iteration    1 A^-1*A deviation from unit magnitude is 7.55D-15 for    430.
 Iteration    1 A^-1*A deviation from orthogonality  is 1.91D-15 for    934    477.
 Error on total polarization charges =  0.01184
 SCF Done:  E(RB3LYP) =  -575.569499083     A.U. after   14 cycles
            NFock= 14  Conv=0.34D-08     -V/T= 2.0038

 **********************************************************************

            Population analysis using the SCF Density.

 **********************************************************************

 Alpha  occ. eigenvalues --  -19.09953 -10.25822 -10.19974 -10.19885 -10.19875
 Alpha  occ. eigenvalues --  -10.19810 -10.19684 -10.19670 -10.19598 -10.19451
 Alpha  occ. eigenvalues --  -10.19290 -10.19034 -10.18878 -10.18081  -1.03831
 Alpha  occ. eigenvalues --   -0.90622  -0.84800  -0.83331  -0.77272  -0.76538
 Alpha  occ. eigenvalues --   -0.74443  -0.67094  -0.64056  -0.62954  -0.61452
 Alpha  occ. eigenvalues --   -0.53664  -0.53093  -0.52409  -0.51146  -0.48104
 Alpha  occ. eigenvalues --   -0.45588  -0.44883  -0.44358  -0.43492  -0.42562
 Alpha  occ. eigenvalues --   -0.41418  -0.40173  -0.39556  -0.39483  -0.35703
 Alpha  occ. eigenvalues --   -0.35459  -0.35295  -0.32178  -0.27808  -0.27036
 Alpha  occ. eigenvalues --   -0.25869  -0.23090
 Alpha virt. eigenvalues --   -0.10335  -0.03127  -0.01816  -0.00757   0.04886
 Alpha virt. eigenvalues --    0.06143   0.07054   0.08114   0.08738   0.09672
 Alpha virt. eigenvalues --    0.09982   0.11608   0.13135   0.14791   0.20113
 Alpha virt. eigenvalues --    0.20788   0.22406   0.22946   0.23909   0.25035
 Alpha virt. eigenvalues --    0.27053   0.27703   0.28504   0.29320   0.31125
 Alpha virt. eigenvalues --    0.34701   0.35515   0.35535   0.36815   0.38371
 Alpha virt. eigenvalues --    0.38514   0.38931   0.38997   0.39675   0.40924
 Alpha virt. eigenvalues --    0.41804   0.42788   0.43282   0.43579   0.43651
 Alpha virt. eigenvalues --    0.44062   0.45269   0.46463   0.46559   0.46851
 Alpha virt. eigenvalues --    0.49503   0.49813   0.51574   0.51730   0.51929
 Alpha virt. eigenvalues --    0.54758   0.55372   0.59012   0.59976   0.60770
 Alpha virt. eigenvalues --    0.61005   0.61304   0.61916   0.62104   0.62477
 Alpha virt. eigenvalues --    0.63245   0.63550   0.67064   0.67660   0.70909
 Alpha virt. eigenvalues --    0.72959   0.73979   0.74104   0.76298   0.76861
 Alpha virt. eigenvalues --    0.77305   0.79460   0.81220   0.81753   0.82159
 Alpha virt. eigenvalues --    0.83780   0.85670   0.87866   0.88839   0.90393
 Alpha virt. eigenvalues --    0.92279   0.93501   0.93855   0.94305   0.96362
 Alpha virt. eigenvalues --    0.98732   1.03106   1.05976   1.06814   1.07853
 Alpha virt. eigenvalues --    1.08622   1.10116   1.10601   1.12855   1.13862
 Alpha virt. eigenvalues --    1.15138   1.17325   1.17906   1.19133   1.19425
 Alpha virt. eigenvalues --    1.21591   1.22773   1.28572   1.31404   1.32343
 Alpha virt. eigenvalues --    1.35773   1.38528   1.40529   1.43285   1.44136
 Alpha virt. eigenvalues --    1.45974   1.46999   1.47608   1.51169   1.54287
 Alpha virt. eigenvalues --    1.54833   1.55544   1.59040   1.60676   1.63334
 Alpha virt. eigenvalues --    1.67009   1.71978   1.74462   1.76845   1.77767
 Alpha virt. eigenvalues --    1.78073   1.81044   1.81319   1.81850   1.83410
 Alpha virt. eigenvalues --    1.83943   1.85447   1.86722   1.86958   1.92690
 Alpha virt. eigenvalues --    1.94253   1.94338   1.97937   1.98227   1.98548
 Alpha virt. eigenvalues --    2.00014   2.03067   2.06016   2.09619   2.13867
 Alpha virt. eigenvalues --    2.14207   2.20752   2.24229   2.29378   2.29604
 Alpha virt. eigenvalues --    2.32285   2.33908   2.36765   2.36978   2.38197
 Alpha virt. eigenvalues --    2.39426   2.42114   2.42603   2.44483   2.49038
 Alpha virt. eigenvalues --    2.54313   2.55553   2.55603   2.66031   2.66630
 Alpha virt. eigenvalues --    2.67737   2.69326   2.71883   2.72513   2.77152
 Alpha virt. eigenvalues --    2.79599   2.80756   2.81124   2.83657   2.85204
 Alpha virt. eigenvalues --    2.93165   2.93389   2.99018   3.01150   3.05551
 Alpha virt. eigenvalues --    3.07259   3.14186   3.15569   3.18490   3.22243
 Alpha virt. eigenvalues --    3.23901   3.25432   3.25626   3.27856   3.30575
 Alpha virt. eigenvalues --    3.32284   3.32376   3.34210   3.35153   3.38697
 Alpha virt. eigenvalues --    3.42446   3.45704   3.47102   3.51294   3.54179
 Alpha virt. eigenvalues --    3.58209   3.62708   3.64040   3.79466   3.81004
 Alpha virt. eigenvalues --    3.89876   3.98999   4.23064   4.24397   4.68695
 Alpha virt. eigenvalues --    4.77664   4.80141   4.89155   5.06403   5.64788
 Alpha virt. eigenvalues --   23.15656  23.50673  23.56830  23.78928  23.84654
 Alpha virt. eigenvalues --   23.87706  23.88487  23.99197  24.02661  24.04416
 Alpha virt. eigenvalues --   24.10450  24.12202  24.18989  49.98587
          Condensed to atoms (all electrons):
               1          2          3          4          5          6
     1  O    7.849153   0.010837  -0.158256   0.000051  -0.002094   0.017134
     2  C    0.010837   5.072803   0.334404   0.512449   0.430790  -0.116479
     3  C   -0.158256   0.334404   5.720397  -0.068593  -0.006744   0.418535
     4  C    0.000051   0.512449  -0.068593   4.826085  -0.053432  -0.052429
     5  C   -0.002094   0.430790  -0.006744  -0.053432   4.902926   0.016904
     6  C    0.017134  -0.116479   0.418535  -0.052429   0.016904   5.164775
     7  C   -0.000047  -0.050806  -0.059027   0.477810   0.013353  -0.033893
     8  C    0.712489   0.056280   0.067649   0.010845  -0.068305  -0.075956
     9  C   -0.000000  -0.056482   0.014611   0.478908  -0.048081   0.000530
    10  C    0.009992  -0.000708  -0.071817   0.014287   0.378408  -0.006669
    11  C   -0.000013  -0.055050   0.016808  -0.045471   0.522813   0.000392
    12  C    0.001890  -0.044608  -0.031069  -0.023842  -0.001684   0.439604
    13  C   -0.097571  -0.097573  -0.037726  -0.004270   0.005224   0.025890
    14  C    0.000000  -0.043048  -0.001559  -0.028181  -0.031934  -0.000148
    15  H    0.022599   0.004576  -0.061757  -0.000618  -0.000097   0.396749
    16  H   -0.000000   0.006750  -0.000206  -0.043587  -0.000426   0.006253
    17  H   -0.000000   0.006912  -0.000507  -0.044310   0.000165   0.000111
    18  H   -0.000213   0.007627  -0.002153  -0.000431  -0.046326   0.000081
    19  H   -0.000000   0.005707  -0.000320   0.000002  -0.043213   0.000013
    20  H   -0.000026   0.000713   0.007051   0.005536   0.000042  -0.043983
    21  H    0.011998  -0.002676   0.018539   0.000021   0.009202  -0.000513
    22  H    0.000000   0.000737   0.000053   0.005511   0.005746  -0.000003
               7          8          9         10         11         12
     1  O   -0.000047   0.712489  -0.000000   0.009992  -0.000013   0.001890
     2  C   -0.050806   0.056280  -0.056482  -0.000708  -0.055050  -0.044608
     3  C   -0.059027   0.067649   0.014611  -0.071817   0.016808  -0.031069
     4  C    0.477810   0.010845   0.478908   0.014287  -0.045471  -0.023842
     5  C    0.013353  -0.068305  -0.048081   0.378408   0.522813  -0.001684
     6  C   -0.033893  -0.075956   0.000530  -0.006669   0.000392   0.439604
     7  C    5.032995  -0.001838  -0.069078  -0.000355   0.000316   0.521194
     8  C   -0.001838   4.720705  -0.000153   0.017033  -0.001872   0.012898
     9  C   -0.069078  -0.000153   5.027285   0.000009  -0.049827   0.005548
    10  C   -0.000355   0.017033   0.000009   5.099629  -0.069950   0.000164
    11  C    0.000316  -0.001872  -0.049827  -0.069950   5.022893  -0.000096
    12  C    0.521194   0.012898   0.005548   0.000164  -0.000096   5.008801
    13  C    0.000095   0.346315   0.000157   0.450870   0.008089  -0.000269
    14  C    0.005400   0.000120   0.543416   0.006623   0.492554  -0.000148
    15  H    0.006746  -0.006482   0.000047  -0.000406   0.000016  -0.037542
    16  H    0.392108   0.000016  -0.002971   0.000002   0.000071  -0.040489
    17  H   -0.002782  -0.000006   0.391582   0.000025   0.006072   0.000175
    18  H   -0.000001   0.006621   0.000056   0.386586  -0.003120   0.000004
    19  H    0.000032  -0.000001   0.006060  -0.003671   0.393089  -0.000000
    20  H   -0.041746  -0.000318  -0.000450   0.000004  -0.000003   0.400965
    21  H    0.000007  -0.053339  -0.000002  -0.039946  -0.000289  -0.000017
    22  H   -0.000454   0.000002  -0.040723  -0.000429  -0.042910   0.000009
              13         14         15         16         17         18
     1  O   -0.097571   0.000000   0.022599  -0.000000  -0.000000  -0.000213
     2  C   -0.097573  -0.043048   0.004576   0.006750   0.006912   0.007627
     3  C   -0.037726  -0.001559  -0.061757  -0.000206  -0.000507  -0.002153
     4  C   -0.004270  -0.028181  -0.000618  -0.043587  -0.044310  -0.000431
     5  C    0.005224  -0.031934  -0.000097  -0.000426   0.000165  -0.046326
     6  C    0.025890  -0.000148   0.396749   0.006253   0.000111   0.000081
     7  C    0.000095   0.005400   0.006746   0.392108  -0.002782  -0.000001
     8  C    0.346315   0.000120  -0.006482   0.000016  -0.000006   0.006621
     9  C    0.000157   0.543416   0.000047  -0.002971   0.391582   0.000056
    10  C    0.450870   0.006623  -0.000406   0.000002   0.000025   0.386586
    11  C    0.008089   0.492554   0.000016   0.000071   0.006072  -0.003120
    12  C   -0.000269  -0.000148  -0.037542  -0.040489   0.000175   0.000004
    13  C    5.339719  -0.000409   0.002378   0.000003   0.000002  -0.032346
    14  C   -0.000409   4.952799  -0.000003   0.000221  -0.039722   0.000192
    15  H    0.002378  -0.000003   0.464827  -0.000277  -0.000002   0.000008
    16  H    0.000003   0.000221  -0.000277   0.457518   0.003771  -0.000001
    17  H    0.000002  -0.039722  -0.000002   0.003771   0.460120  -0.000003
    18  H   -0.032346   0.000192   0.000008  -0.000001  -0.000003   0.462728
    19  H    0.000563  -0.040321  -0.000000  -0.000001  -0.000311   0.003629
    20  H   -0.000007   0.000009  -0.005972  -0.005812  -0.000030   0.000000
    21  H    0.374530   0.000007  -0.000111   0.000000   0.000000  -0.010483
    22  H    0.000002   0.400306   0.000000  -0.000029  -0.005826  -0.000014
              19         20         21         22
     1  O   -0.000000  -0.000026   0.011998   0.000000
     2  C    0.005707   0.000713  -0.002676   0.000737
     3  C   -0.000320   0.007051   0.018539   0.000053
     4  C    0.000002   0.005536   0.000021   0.005511
     5  C   -0.043213   0.000042   0.009202   0.005746
     6  C    0.000013  -0.043983  -0.000513  -0.000003
     7  C    0.000032  -0.041746   0.000007  -0.000454
     8  C   -0.000001  -0.000318  -0.053339   0.000002
     9  C    0.006060  -0.000450  -0.000002  -0.040723
    10  C   -0.003671   0.000004  -0.039946  -0.000429
    11  C    0.393089  -0.000003  -0.000289  -0.042910
    12  C   -0.000000   0.400965  -0.000017   0.000009
    13  C    0.000563  -0.000007   0.374530   0.000002
    14  C   -0.040321   0.000009   0.000007   0.400306
    15  H   -0.000000  -0.005972  -0.000111   0.000000
    16  H   -0.000001  -0.005812   0.000000  -0.000029
    17  H   -0.000311  -0.000030   0.000000  -0.005826
    18  H    0.003629   0.000000  -0.010483  -0.000014
    19  H    0.456611   0.000000  -0.000037  -0.005660
    20  H    0.000000   0.462023  -0.000001  -0.000000
    21  H   -0.000037  -0.000001   0.483075  -0.000001
    22  H   -0.005660  -0.000000  -0.000001   0.463507
 Mulliken charges:
               1
     1  O   -0.377924
     2  C    0.016843
     3  C   -0.098315
     4  C    0.033658
     5  C    0.016763
     6  C   -0.156899
     7  C   -0.190032
     8  C    0.257297
     9  C   -0.200439
    10  C   -0.169680
    11  C   -0.194511
    12  C   -0.211488
    13  C   -0.283667
    14  C   -0.216177
    15  H    0.215320
    16  H    0.227086
    17  H    0.224563
    18  H    0.227558
    19  H    0.227830
    20  H    0.222005
    21  H    0.210035
    22  H    0.220176
 Sum of Mulliken charges =  -0.00000
 Mulliken charges with hydrogens summed into heavy atoms:
               1
     1  O   -0.377924
     2  C    0.016843
     3  C   -0.098315
     4  C    0.033658
     5  C    0.016763
     6  C    0.058421
     7  C    0.037054
     8  C    0.257297
     9  C    0.024123
    10  C    0.057877
    11  C    0.033319
    12  C    0.010517
    13  C   -0.073632
    14  C    0.003999
 Electronic spatial extent (au):  <R**2>=           8316.4606
 Charge=             -0.0000 electrons
 Dipole moment (field-independent basis, Debye):
    X=              6.1018    Y=             -1.8840    Z=              0.0118  Tot=              6.3861
 Quadrupole moment (field-independent basis, Debye-Ang):
   XX=            -33.5882   YY=            -59.5561   ZZ=            -84.5187
   XY=             -7.0174   XZ=              0.4705   YZ=             -0.1158
 Traceless Quadrupole moment (field-independent basis, Debye-Ang):
   XX=             25.6328   YY=             -0.3351   ZZ=            -25.2977
   XY=             -7.0174   XZ=              0.4705   YZ=             -0.1158
 Octapole moment (field-independent basis, Debye-Ang**2):
  XXX=           -640.8415  YYY=            190.8224  ZZZ=            -16.5963  XYY=           -244.6779
  XXY=             38.6698  XXZ=             -1.5052  XZZ=           -354.6993  YZZ=             92.6583
  YYZ=             -3.9769  XYZ=             -0.5360
 Hexadecapole moment (field-independent basis, Debye-Ang**3):
 XXXX=          -7148.1063 YYYY=          -1583.2211 ZZZZ=            -95.2004 XXXY=            762.9486
 XXXZ=            -39.2075 YYYX=            845.1874 YYYZ=             12.9312 ZZZX=            -73.1207
 ZZZY=             18.4573 XXYY=          -1511.5946 XXZZ=          -1800.0226 YYZZ=           -374.2002
 XXYZ=              1.8607 YYXZ=            -16.8186 ZZXY=            406.3305
 N-N= 7.908196923922D+02 E-N=-2.920785517933D+03  KE= 5.733869159627D+02
 D1PCM: PCM CHGder 1st derivatives, ID1Alg=3 FixD1E=F DoIter=F DoCFld=F I1PDM=0.
 Calling FoFJK, ICntrl=      2127 FMM=F ISym2X=0 I1Cent= 0 IOpClX= 0 NMat=1 NMatS=1 NMatT=0.
 -------------------------------------------------------------------
 Center     Atomic                   Forces (Hartrees/Bohr)
 Number     Number              X              Y              Z
 -------------------------------------------------------------------
      1        8          -0.011009280   -0.001364895   -0.000054407
      2        6          -0.001693496   -0.003177243   -0.000006115
      3        6          -0.017085393    0.000891784   -0.000072072
      4        6           0.002345515   -0.007226878   -0.000005408
      5        6           0.010956053    0.025606884   -0.000008103
      6        6           0.002385239    0.009425778   -0.000009410
      7        6          -0.018184183   -0.011395532   -0.000111911
      8        6           0.005612781    0.010782177   -0.000007733
      9        6           0.023735047    0.012650085    0.000128216
     10        6           0.011168179   -0.010134819    0.000030391
     11        6          -0.009917974    0.003447140   -0.000067481
     12        6           0.014104097   -0.007373355    0.000088843
     13        6          -0.011312218   -0.009661216   -0.000024778
     14        6           0.000931074   -0.020061649   -0.000023053
     15        1           0.003071712    0.003144134    0.000009488
     16        1           0.000794863    0.003119277    0.000000379
     17        1          -0.002976042    0.000511346   -0.000001582
     18        1           0.001653901   -0.000208107    0.000020797
     19        1          -0.002927795   -0.000152668    0.000004229
     20        1           0.001419249    0.001404616    0.000035665
     21        1          -0.001008438    0.000309984    0.000055426
     22        1          -0.002062890   -0.000536845    0.000018618
 -------------------------------------------------------------------
 Cartesian Forces:  Max     0.025606884 RMS     0.007749787

 GradGradGradGradGradGradGradGradGradGradGradGradGradGradGradGradGradGrad
 Berny optimization.
 FormGI is forming the generalized inverse of G from B-inverse, IUseBI=4.
 Internal  Forces:  Max     0.013764157 RMS     0.004110567
 Search for a local minimum.
 Step number   1 out of a maximum of  132
 All quantities printed in internal units (Hartrees-Bohrs-Radians)
 Mixed Optimization -- RFO/linear search
 Second derivative matrix not updated -- first step.
 ITU=  0
     Eigenvalues ---    0.00987   0.01250   0.01673   0.01726   0.01806
     Eigenvalues ---    0.01975   0.01988   0.01997   0.02031   0.02061
     Eigenvalues ---    0.02076   0.02093   0.02137   0.02139   0.02142
     Eigenvalues ---    0.02143   0.02160   0.02163   0.02309   0.16000
     Eigenvalues ---    0.16000   0.16000   0.16000   0.16000   0.16000
     Eigenvalues ---    0.16000   0.16000   0.22061   0.22185   0.22504
     Eigenvalues ---    0.23361   0.23740   0.24543   0.24895   0.24969
     Eigenvalues ---    0.25000   0.32793   0.33433   0.34986   0.35041
     Eigenvalues ---    0.35050   0.35123   0.35127   0.35144   0.35399
     Eigenvalues ---    0.35593   0.35684   0.36537   0.39890   0.41171
     Eigenvalues ---    0.43337   0.43755   0.45293   0.45356   0.45491
     Eigenvalues ---    0.45575   0.46402   0.46455   0.55792   0.92913
 RFO step:  Lambda=-5.24309430D-03 EMin= 9.86609007D-03
 Linear search not attempted -- first point.
 Iteration  1 RMS(Cart)=  0.01416439 RMS(Int)=  0.00007485
 Iteration  2 RMS(Cart)=  0.00011714 RMS(Int)=  0.00002660
 Iteration  3 RMS(Cart)=  0.00000001 RMS(Int)=  0.00002660
 Variable       Old X    -DE/DX   Delta X   Delta X   Delta X     New X
                                 (Linear)    (Quad)   (Total)
    R1        2.31619   0.01100   0.00000   0.01178   0.01178   2.32796
    R2        2.65741   0.01037   0.00000   0.02551   0.02543   2.68284
    R3        2.67309   0.01200   0.00000   0.03160   0.03151   2.70460
    R4        2.66147   0.00853   0.00000   0.02143   0.02139   2.68286
    R5        2.64293  -0.00796   0.00000  -0.01778  -0.01775   2.62518
    R6        2.80337   0.00266   0.00000   0.00768   0.00765   2.81102
    R7        2.65490   0.00776   0.00000   0.01774   0.01771   2.67261
    R8        2.65140   0.01262   0.00000   0.02832   0.02830   2.67970
    R9        2.76974  -0.00881   0.00000  -0.02394  -0.02391   2.74583
   R10        2.64202  -0.00591   0.00000  -0.01341  -0.01339   2.62863
   R11        2.63152   0.01039   0.00000   0.01992   0.01998   2.65149
   R12        2.05594  -0.00318   0.00000  -0.00893  -0.00893   2.04701
   R13        2.63942  -0.01066   0.00000  -0.02423  -0.02420   2.61521
   R14        2.05698  -0.00227   0.00000  -0.00641  -0.00641   2.05057
   R15        2.80275  -0.00680   0.00000  -0.02103  -0.02100   2.78175
   R16        2.63797  -0.01272   0.00000  -0.02840  -0.02839   2.60958
   R17        2.05608  -0.00205   0.00000  -0.00576  -0.00576   2.05031
   R18        2.52950   0.01376   0.00000   0.02287   0.02293   2.55243
   R19        2.05032   0.00064   0.00000   0.00178   0.00178   2.05210
   R20        2.63330   0.01277   0.00000   0.02513   0.02517   2.65847
   R21        2.05470  -0.00156   0.00000  -0.00437  -0.00437   2.05033
   R22        2.05441  -0.00191   0.00000  -0.00535  -0.00535   2.04907
   R23        2.04722   0.00081   0.00000   0.00224   0.00224   2.04946
   R24        2.05476  -0.00208   0.00000  -0.00583  -0.00583   2.04893
    A1        2.07742   0.00242   0.00000   0.01100   0.01098   2.08840
    A2        2.11736  -0.00147   0.00000  -0.00828  -0.00829   2.10907
    A3        2.08841  -0.00095   0.00000  -0.00272  -0.00270   2.08572
    A4        2.11316  -0.00651   0.00000  -0.02432  -0.02429   2.08887
    A5        2.08210   0.00415   0.00000   0.01812   0.01803   2.10013
    A6        2.08793   0.00236   0.00000   0.00620   0.00626   2.09419
    A7        2.08207  -0.00322   0.00000  -0.00945  -0.00952   2.07255
    A8        2.08088  -0.00130   0.00000  -0.00182  -0.00185   2.07902
    A9        2.12024   0.00452   0.00000   0.01127   0.01137   2.13161
   A10        2.08840  -0.00421   0.00000  -0.01455  -0.01456   2.07384
   A11        2.09718  -0.00297   0.00000  -0.01063  -0.01065   2.08653
   A12        2.09761   0.00718   0.00000   0.02518   0.02521   2.12281
   A13        2.08897   0.00530   0.00000   0.01951   0.01956   2.10853
   A14        2.09949  -0.00577   0.00000  -0.02866  -0.02868   2.07081
   A15        2.09472   0.00047   0.00000   0.00915   0.00912   2.10384
   A16        2.10979  -0.00050   0.00000  -0.00224  -0.00228   2.10752
   A17        2.09974  -0.00209   0.00000  -0.01305  -0.01303   2.08671
   A18        2.07365   0.00259   0.00000   0.01529   0.01531   2.08896
   A19        2.13397   0.00112   0.00000   0.00483   0.00484   2.13881
   A20        2.10090   0.00438   0.00000   0.01761   0.01762   2.11852
   A21        2.04832  -0.00551   0.00000  -0.02244  -0.02246   2.02586
   A22        2.10619  -0.00080   0.00000  -0.00295  -0.00298   2.10321
   A23        2.10272  -0.00188   0.00000  -0.01232  -0.01231   2.09042
   A24        2.07427   0.00268   0.00000   0.01527   0.01529   2.08956
   A25        2.11327   0.00346   0.00000   0.01438   0.01444   2.12771
   A26        2.06772  -0.00331   0.00000  -0.01675  -0.01677   2.05095
   A27        2.10219  -0.00015   0.00000   0.00237   0.00234   2.10453
   A28        2.09741   0.00413   0.00000   0.01461   0.01464   2.11205
   A29        2.10611  -0.00462   0.00000  -0.02274  -0.02276   2.08335
   A30        2.07966   0.00049   0.00000   0.00813   0.00812   2.08778
   A31        2.09496   0.00250   0.00000   0.00550   0.00554   2.10050
   A32        2.09350  -0.00065   0.00000   0.00092   0.00089   2.09440
   A33        2.09472  -0.00186   0.00000  -0.00642  -0.00644   2.08828
   A34        2.11692   0.00359   0.00000   0.01278   0.01284   2.12976
   A35        2.03245  -0.00249   0.00000  -0.01058  -0.01061   2.02184
   A36        2.13381  -0.00110   0.00000  -0.00220  -0.00223   2.13158
   A37        2.09630   0.00189   0.00000   0.00351   0.00353   2.09983
   A38        2.09384  -0.00143   0.00000  -0.00469  -0.00470   2.08914
   A39        2.09305  -0.00046   0.00000   0.00118   0.00117   2.09422
    D1       -0.00011  -0.00001   0.00000  -0.00016  -0.00016  -0.00027
    D2       -3.14097  -0.00002   0.00000  -0.00074  -0.00074   3.14148
    D3        3.14081   0.00001   0.00000   0.00032   0.00031   3.14112
    D4       -0.00005  -0.00001   0.00000  -0.00027  -0.00027  -0.00032
    D5        0.00025  -0.00000   0.00000  -0.00002  -0.00002   0.00023
    D6        3.14083   0.00002   0.00000   0.00076   0.00075   3.14158
    D7       -3.14068  -0.00001   0.00000  -0.00048  -0.00048  -3.14116
    D8       -0.00010   0.00001   0.00000   0.00030   0.00029   0.00019
    D9       -0.00164   0.00002   0.00000   0.00093   0.00092  -0.00072
   D10       -3.14123  -0.00001   0.00000  -0.00038  -0.00037   3.14159
   D11        3.13927   0.00003   0.00000   0.00141   0.00140   3.14067
   D12       -0.00031   0.00000   0.00000   0.00011   0.00011  -0.00020
   D13       -0.00042   0.00002   0.00000   0.00053   0.00053   0.00010
   D14       -3.14146  -0.00000   0.00000  -0.00017  -0.00017   3.14156
   D15        3.14043   0.00004   0.00000   0.00112   0.00111   3.14154
   D16       -0.00061   0.00001   0.00000   0.00042   0.00042  -0.00019
   D17       -3.13905   0.00000   0.00000  -0.00048  -0.00048  -3.13954
   D18        0.00265  -0.00002   0.00000  -0.00104  -0.00103   0.00162
   D19        0.00326  -0.00001   0.00000  -0.00104  -0.00105   0.00221
   D20       -3.13822  -0.00003   0.00000  -0.00160  -0.00160  -3.13982
   D21        0.00015  -0.00000   0.00000  -0.00018  -0.00018  -0.00003
   D22        3.14126   0.00001   0.00000   0.00032   0.00031   3.14157
   D23       -3.14041  -0.00002   0.00000  -0.00097  -0.00096  -3.14137
   D24        0.00071  -0.00001   0.00000  -0.00047  -0.00048   0.00023
   D25        0.00040  -0.00001   0.00000  -0.00044  -0.00044  -0.00004
   D26       -3.14094  -0.00002   0.00000  -0.00065  -0.00065  -3.14158
   D27        3.14096   0.00000   0.00000   0.00034   0.00035   3.14130
   D28       -0.00038   0.00000   0.00000   0.00013   0.00014  -0.00024
   D29        0.00057   0.00000   0.00000  -0.00019  -0.00020   0.00037
   D30       -3.13971  -0.00002   0.00000  -0.00140  -0.00141  -3.14112
   D31        3.14015   0.00002   0.00000   0.00107   0.00108   3.14123
   D32       -0.00013  -0.00000   0.00000  -0.00014  -0.00014  -0.00027
   D33        0.00043  -0.00001   0.00000  -0.00036  -0.00036   0.00007
   D34        3.14101   0.00002   0.00000   0.00069   0.00068  -3.14149
   D35       -3.13914  -0.00003   0.00000  -0.00163  -0.00164  -3.14078
   D36        0.00144  -0.00000   0.00000  -0.00058  -0.00059   0.00084
   D37        0.00082  -0.00002   0.00000  -0.00071  -0.00072   0.00010
   D38       -3.14055  -0.00002   0.00000  -0.00082  -0.00083  -3.14138
   D39       -3.14133   0.00000   0.00000  -0.00003  -0.00003  -3.14135
   D40        0.00048  -0.00000   0.00000  -0.00013  -0.00013   0.00035
   D41       -0.00069   0.00001   0.00000   0.00056   0.00056  -0.00013
   D42        3.14069   0.00002   0.00000   0.00066   0.00066   3.14135
   D43        3.14137   0.00000   0.00000   0.00008   0.00007   3.14145
   D44       -0.00044   0.00001   0.00000   0.00018   0.00018  -0.00026
   D45        3.13794   0.00002   0.00000   0.00122   0.00122   3.13916
   D46       -0.00334   0.00003   0.00000   0.00151   0.00150  -0.00184
   D47       -0.00376   0.00004   0.00000   0.00176   0.00175  -0.00200
   D48        3.13815   0.00005   0.00000   0.00205   0.00204   3.14019
   D49       -0.00029   0.00000   0.00000   0.00018   0.00018  -0.00010
   D50       -3.14099  -0.00001   0.00000  -0.00052  -0.00052  -3.14151
   D51        3.14106   0.00001   0.00000   0.00038   0.00039   3.14144
   D52        0.00035  -0.00001   0.00000  -0.00032  -0.00032   0.00003
   D53        0.00219  -0.00002   0.00000  -0.00112  -0.00113   0.00105
   D54       -3.13974  -0.00003   0.00000  -0.00142  -0.00144  -3.14118
   D55       -3.14075   0.00001   0.00000   0.00011   0.00010  -3.14064
   D56        0.00052  -0.00000   0.00000  -0.00020  -0.00020   0.00031
   D57       -0.00013   0.00001   0.00000   0.00022   0.00022   0.00009
   D58        3.14057   0.00002   0.00000   0.00092   0.00093   3.14150
   D59       -3.14072  -0.00002   0.00000  -0.00080  -0.00081  -3.14154
   D60       -0.00002  -0.00000   0.00000  -0.00010  -0.00010  -0.00013
         Item               Value     Threshold  Converged?
 Maximum Force            0.013764     0.000450     NO 
 RMS     Force            0.004111     0.000300     NO 
 Maximum Displacement     0.062380     0.001800     NO 
 RMS     Displacement     0.014154     0.001200     NO 
 Predicted change in Energy=-2.662281D-03
 GradGradGradGradGradGradGradGradGradGradGradGradGradGradGradGradGradGrad

                          Input orientation:                          
 ---------------------------------------------------------------------
 Center     Atomic      Atomic             Coordinates (Angstroms)
 Number     Number       Type             X           Y           Z
 ---------------------------------------------------------------------
      1          8           0        0.915200    0.037935    0.053767
      2          6           0        4.365742   -1.161700    0.065999
      3          6           0        2.947108   -1.216357    0.060016
      4          6           0        5.121254   -2.377250    0.069154
      5          6           0        5.046089    0.084368    0.068651
      6          6           0        2.306160   -2.448838    0.056959
      7          6           0        4.427228   -3.609530    0.065909
      8          6           0        2.147101    0.037724    0.056820
      9          6           0        6.537652   -2.309377    0.075113
     10          6           0        4.264459    1.309248    0.064211
     11          6           0        6.436912    0.106585    0.074522
     12          6           0        3.043722   -3.642452    0.059837
     13          6           0        2.913869    1.294290    0.058082
     14          6           0        7.180873   -1.087399    0.077798
     15          1           0        1.223166   -2.470989    0.052432
     16          1           0        4.986942   -4.539148    0.068224
     17          1           0        7.120851   -3.224281    0.077540
     18          1           0        4.806530    2.250198    0.065899
     19          1           0        6.953820    1.060525    0.076628
     20          1           0        2.529887   -4.597289    0.057198
     21          1           0        2.326937    2.206263    0.054371
     22          1           0        8.264490   -1.050747    0.082281
 ---------------------------------------------------------------------
                    Distance matrix (angstroms):
                    1          2          3          4          5
     1  O    0.000000
     2  C    3.653151   0.000000
     3  C    2.387873   1.419699   0.000000
     4  C    4.850180   1.431213   2.464684   0.000000
     5  C    4.131176   1.419706   2.469348   2.462766   0.000000
     6  C    2.849354   2.428720   1.389184   2.816031   3.731552
     7  C    5.063446   2.448601   2.813906   1.414283   3.745381
     8  C    1.231905   2.522117   1.487528   3.831167   2.899387
     9  C    6.092806   2.456509   3.753255   1.418035   2.820429
    10  C    3.582440   2.473024   2.848527   3.784758   1.453029
    11  C    5.522177   2.428655   3.732173   2.810768   1.391013
    12  C    4.251574   2.811032   2.428018   2.432481   4.230690
    13  C    2.360746   2.853049   2.510867   4.284026   2.451608
    14  C    6.365972   2.816136   4.235765   2.430189   2.435246
    15  H    2.527754   3.404439   2.132167   3.899251   4.598353
    16  H    6.126090   3.434101   3.898965   2.166066   4.623895
    17  H    7.010900   3.441656   4.631652   2.171617   3.905366
    18  H    4.476238   3.440253   3.933762   4.638139   2.179039
    19  H    6.124634   3.411238   4.608493   3.895722   2.142985
    20  H    4.908413   3.895344   3.406579   3.412316   5.315008
    21  H    2.587402   3.937009   3.478358   5.368149   3.449120
    22  H    7.429543   3.900361   5.320007   3.411703   3.412738
                    6          7          8          9         10
     6  C    0.000000
     7  C    2.417895   0.000000
     8  C    2.491644   4.301340   0.000000
     9  C    4.233828   2.478783   4.978569   0.000000
    10  C    4.237711   4.921470   2.469824   4.273402   0.000000
    11  C    4.857324   4.224737   4.290400   2.418061   2.483155
    12  C    1.403110   1.383912   3.787826   3.739635   5.099955
    13  C    3.792139   5.132033   1.472037   5.110627   1.350687
    14  C    5.061301   3.734145   5.158023   1.380931   3.774860
    15  H    1.083230   3.400363   2.673446   5.316990   4.851782
    16  H    3.399428   1.085115   5.386333   2.715995   5.892854
    17  H    4.876780   2.721058   5.948050   1.084978   5.358362
    18  H    5.322862   5.871990   3.459435   4.877149   1.085924
    19  H    5.823809   5.309725   4.914373   3.395502   2.700866
    20  H    2.160068   2.139077   4.650792   4.614871   6.155969
    21  H    4.655148   6.183430   2.175985   6.174266   2.135117
    22  H    6.120212   4.612181   6.213523   2.136861   4.644368
                   11         12         13         14         15
    11  C    0.000000
    12  C    5.056602   0.000000
    13  C    3.717895   4.938449   0.000000
    14  C    1.406800   4.862575   4.886732   0.000000
    15  H    5.816143   2.164902   4.127448   6.116309   0.000000
    16  H    4.866753   2.140149   6.190859   4.089988   4.294594
    17  H    3.400360   4.098557   6.173861   2.137725   5.945651
    18  H    2.693194   6.150678   2.120375   4.095997   5.927080
    19  H    1.084988   6.116137   4.046751   2.159891   6.731461
    20  H    6.114865   1.084319   5.904078   5.826785   2.495735
    21  H    4.615295   5.892476   1.084527   5.865957   4.805726
    22  H    2.163220   5.828710   5.841997   1.084247   7.183190
                   16         17         18         19         20
    16  H    0.000000
    17  H    2.506498   0.000000
    18  H    6.791743   5.943579   0.000000
    19  H    5.935067   4.288060   2.454850   0.000000
    20  H    2.457767   4.791922   7.216041   7.182090   0.000000
    21  H    7.250958   7.243823   2.480010   4.766682   6.806579
    22  H    4.786593   2.456050   4.780585   2.485027   6.742719
                   21         22
    21  H    0.000000
    22  H    6.772255   0.000000
 Symmetry turned off by external request.
 Stoichiometry    C13H8O
 Framework group  C1[X(C13H8O)]
 Deg. of freedom    60
 Full point group                 C1      NOp   1
 Rotational constants (GHZ):           1.1090787           0.7867322           0.4602506
 Standard basis: 6-311G(d) (5D, 7F)
   276 basis functions,   488 primitive gaussians,   290 cartesian basis functions
    47 alpha electrons       47 beta electrons
       nuclear repulsion energy       788.7644341669 Hartrees.
 NAtoms=   22 NActive=   22 NUniq=   22 SFac= 1.00D+00 NAtFMM=   60 NAOKFM=F Big=F
 Integral buffers will be    131072 words long.
 Raffenetti 2 integral format.
 Two-electron integral symmetry is turned off.
 ------------------------------------------------------------------------------
 Polarizable Continuum Model (PCM)
 =================================
 Model                : PCM.
 Atomic radii         : UFF (Universal Force Field).
 Polarization charges : Total charges.
 Charge compensation  : None.
 Solution method      : On-the-fly selection.
 Cavity type          : Scaled VdW (van der Waals Surface) (Alpha=1.100).
 Cavity algorithm     : GePol (No added spheres)
                        Default sphere list used, NSphG=   22.
                        Lebedev-Laikov grids with approx.  5.0 points / Ang**2.
                        Smoothing algorithm: York/Karplus (Gamma=1.0000).
                        Polarization charges: spherical gaussians, with
                                              point-specific exponents (IZeta= 3).
                        Self-potential: point-specific (ISelfS= 7).
                        Self-field    : sphere-specific E.n sum rule (ISelfD= 2).
 1st derivatives      : Analytical E(r).r(x)/FMM algorithm (CHGder, D1EAlg=3).
                        Cavity 1st derivative terms included.
 Solvent              : Water, Eps=  78.355300 Eps(inf)=   1.777849
 ------------------------------------------------------------------------------
 One-electron integrals computed using PRISM.
 NBasis=   276 RedAO= T EigKep=  7.28D-05  NBF=   276
 NBsUse=   276 1.00D-06 EigRej= -1.00D+00 NBFU=   276
 Initial guess from the checkpoint file:  "ground_state_opt.chk"
 B after Tr=    -0.003916   -0.001155   -0.001068
         Rot=    1.000000    0.000026    0.000011   -0.000127 Ang=   0.01 deg.
 ExpMin= 1.03D-01 ExpMax= 8.59D+03 ExpMxC= 1.30D+03 IAcc=3 IRadAn=         5 AccDes= 0.00D+00
 Harris functional with IExCor=  402 and IRadAn=       5 diagonalized for initial guess.
 HarFok:  IExCor=  402 AccDes= 0.00D+00 IRadAn=         5 IDoV= 1 UseB2=F ITyADJ=14
 ICtDFT=  3500011 ScaDFX=  1.000000  1.000000  1.000000  1.000000
 FoFCou: FMM=F IPFlag=           0 FMFlag=      100000 FMFlg1=           0
         NFxFlg=           0 DoJE=T BraDBF=F KetDBF=T FulRan=T
         wScrn=  0.000000 ICntrl=       500 IOpCl=  0 I1Cent=   200000004 NGrid=           0
         NMat0=    1 NMatS0=      1 NMatT0=    0 NMatD0=    1 NMtDS0=    0 NMtDT0=    0
 Symmetry not used in FoFCou.
 Keep R1 ints in memory in canonical form, NReq=742955085.
 Requested convergence on RMS density matrix=1.00D-08 within 128 cycles.
 Requested convergence on MAX density matrix=1.00D-06.
 Requested convergence on             energy=1.00D-06.
 No special actions if energy rises.
 Inv3:  Mode=1 IEnd=     9644547.
 Iteration    1 A*A^-1 deviation from unit magnitude is 5.33D-15 for   1784.
 Iteration    1 A*A^-1 deviation from orthogonality  is 2.89D-15 for   1778   1271.
 Iteration    1 A^-1*A deviation from unit magnitude is 5.77D-15 for    433.
 Iteration    1 A^-1*A deviation from orthogonality  is 1.83D-15 for    792    444.
 Error on total polarization charges =  0.01185
 SCF Done:  E(RB3LYP) =  -575.572363598     A.U. after   11 cycles
            NFock= 11  Conv=0.45D-08     -V/T= 2.0040
 D1PCM: PCM CHGder 1st derivatives, ID1Alg=3 FixD1E=F DoIter=F DoCFld=F I1PDM=0.
 Calling FoFJK, ICntrl=      2127 FMM=F ISym2X=0 I1Cent= 0 IOpClX= 0 NMat=1 NMatS=1 NMatT=0.
 -------------------------------------------------------------------
 Center     Atomic                   Forces (Hartrees/Bohr)
 Number     Number              X              Y              Z
 -------------------------------------------------------------------
      1        8          -0.000924381   -0.001025175   -0.000043201
      2        6           0.001155495   -0.005439271   -0.000005471
      3        6          -0.002690392   -0.001313680   -0.000028515
      4        6          -0.002161683    0.001318995   -0.000014242
      5        6           0.003252571    0.005980498   -0.000010257
      6        6           0.001588097    0.001026446    0.000029820
      7        6          -0.004586601   -0.000789443   -0.000010260
      8        6           0.003286212    0.004210463    0.000047749
      9        6           0.003464170    0.004563092    0.000019084
     10        6           0.001041930   -0.003142349    0.000011641
     11        6          -0.002145992    0.000320649    0.000004226
     12        6           0.002848027   -0.001099421    0.000005956
     13        6          -0.002413975   -0.002948905   -0.000000776
     14        6          -0.000708129   -0.003887647   -0.000002948
     15        1          -0.000596127    0.000089661   -0.000009713
     16        1           0.000885684    0.000383621   -0.000001399
     17        1          -0.001101806   -0.000727175   -0.000004057
     18        1          -0.000464828    0.000494814   -0.000012263
     19        1           0.000199977    0.000239858   -0.000007071
     20        1          -0.000565962    0.000259818    0.000004700
     21        1           0.000679978    0.000654548    0.000023206
     22        1          -0.000042266    0.000830603    0.000003789
 -------------------------------------------------------------------
 Cartesian Forces:  Max     0.005980498 RMS     0.001914200

 GradGradGradGradGradGradGradGradGradGradGradGradGradGradGradGradGradGrad
 Berny optimization.
 Using GEDIIS/GDIIS optimizer.
 FormGI is forming the generalized inverse of G from B-inverse, IUseBI=4.
 Internal  Forces:  Max     0.003513862 RMS     0.000806320
 Search for a local minimum.
 Step number   2 out of a maximum of  132
 All quantities printed in internal units (Hartrees-Bohrs-Radians)
 Mixed Optimization -- En-DIIS/RFO-DIIS
 Update second derivatives using D2CorX and points    1    2
 DE= -2.86D-03 DEPred=-2.66D-03 R= 1.08D+00
 TightC=F SS=  1.41D+00  RLast= 1.23D-01 DXNew= 5.0454D-01 3.6862D-01
 Trust test= 1.08D+00 RLast= 1.23D-01 DXMaxT set to 3.69D-01
 ITU=  1  0
 Use linear search instead of GDIIS.
     Eigenvalues ---    0.00987   0.01256   0.01674   0.01720   0.01805
     Eigenvalues ---    0.01985   0.01989   0.01999   0.02031   0.02062
     Eigenvalues ---    0.02077   0.02093   0.02137   0.02140   0.02143
     Eigenvalues ---    0.02143   0.02160   0.02163   0.02317   0.15293
     Eigenvalues ---    0.16000   0.16000   0.16000   0.16000   0.16000
     Eigenvalues ---    0.16000   0.16382   0.21939   0.22081   0.22374
     Eigenvalues ---    0.23295   0.23882   0.24438   0.24816   0.24916
     Eigenvalues ---    0.25507   0.30796   0.33180   0.34990   0.35034
     Eigenvalues ---    0.35085   0.35116   0.35137   0.35199   0.35267
     Eigenvalues ---    0.35405   0.35594   0.37016   0.40405   0.41158
     Eigenvalues ---    0.42141   0.43350   0.44917   0.45297   0.45440
     Eigenvalues ---    0.45611   0.46400   0.47947   0.56310   0.92795
 RFO step:  Lambda=-2.45757002D-04 EMin= 9.86598945D-03
 Quartic linear search produced a step of  0.10867.
 Iteration  1 RMS(Cart)=  0.00320684 RMS(Int)=  0.00001296
 Iteration  2 RMS(Cart)=  0.00001504 RMS(Int)=  0.00000381
 Iteration  3 RMS(Cart)=  0.00000000 RMS(Int)=  0.00000381
 Variable       Old X    -DE/DX   Delta X   Delta X   Delta X     New X
                                 (Linear)    (Quad)   (Total)
    R1        2.32796   0.00092   0.00128   0.00037   0.00165   2.32962
    R2        2.68284   0.00081   0.00276   0.00098   0.00373   2.68657
    R3        2.70460  -0.00301   0.00342  -0.00943  -0.00601   2.69859
    R4        2.68286   0.00351   0.00232   0.00820   0.01052   2.69338
    R5        2.62518  -0.00104  -0.00193  -0.00133  -0.00325   2.62193
    R6        2.81102   0.00013   0.00083  -0.00005   0.00078   2.81180
    R7        2.67261   0.00138   0.00192   0.00223   0.00415   2.67676
    R8        2.67970   0.00167   0.00307   0.00220   0.00528   2.68497
    R9        2.74583  -0.00226  -0.00260  -0.00542  -0.00801   2.73781
   R10        2.62863  -0.00193  -0.00145  -0.00368  -0.00514   2.62350
   R11        2.65149   0.00041   0.00217  -0.00033   0.00185   2.65334
   R12        2.04701   0.00059  -0.00097   0.00243   0.00146   2.04847
   R13        2.61521  -0.00226  -0.00263  -0.00405  -0.00668   2.60854
   R14        2.05057   0.00013  -0.00070   0.00080   0.00011   2.05068
   R15        2.78175  -0.00288  -0.00228  -0.00859  -0.01087   2.77088
   R16        2.60958  -0.00221  -0.00308  -0.00381  -0.00690   2.60269
   R17        2.05031   0.00002  -0.00063   0.00042  -0.00020   2.05011
   R18        2.55243   0.00024   0.00249  -0.00126   0.00124   2.55367
   R19        2.05210   0.00020   0.00019   0.00051   0.00070   2.05280
   R20        2.65847   0.00084   0.00273   0.00028   0.00302   2.66148
   R21        2.05033   0.00031  -0.00047   0.00124   0.00076   2.05109
   R22        2.04907   0.00004  -0.00058   0.00046  -0.00013   2.04894
   R23        2.04946   0.00018   0.00024   0.00043   0.00067   2.05013
   R24        2.04893  -0.00001  -0.00063   0.00032  -0.00032   2.04861
    A1        2.08840   0.00002   0.00119  -0.00132  -0.00013   2.08827
    A2        2.10907  -0.00041  -0.00090  -0.00046  -0.00136   2.10771
    A3        2.08572   0.00039  -0.00029   0.00178   0.00149   2.08721
    A4        2.08887  -0.00024  -0.00264   0.00067  -0.00197   2.08689
    A5        2.10013  -0.00046   0.00196  -0.00254  -0.00060   2.09953
    A6        2.09419   0.00070   0.00068   0.00188   0.00257   2.09676
    A7        2.07255   0.00006  -0.00103   0.00105   0.00000   2.07256
    A8        2.07902  -0.00090  -0.00020  -0.00375  -0.00395   2.07507
    A9        2.13161   0.00083   0.00124   0.00270   0.00395   2.13556
   A10        2.07384  -0.00098  -0.00158  -0.00293  -0.00452   2.06932
   A11        2.08653  -0.00025  -0.00116   0.00015  -0.00101   2.08553
   A12        2.12281   0.00122   0.00274   0.00278   0.00553   2.12834
   A13        2.10853   0.00034   0.00213   0.00088   0.00301   2.11154
   A14        2.07081  -0.00028  -0.00312   0.00001  -0.00311   2.06770
   A15        2.10384  -0.00007   0.00099  -0.00089   0.00010   2.10394
   A16        2.10752   0.00039  -0.00025   0.00202   0.00177   2.10929
   A17        2.08671  -0.00118  -0.00142  -0.00691  -0.00832   2.07838
   A18        2.08896   0.00078   0.00166   0.00489   0.00656   2.09552
   A19        2.13881  -0.00146   0.00053  -0.00646  -0.00593   2.13288
   A20        2.11852   0.00092   0.00191   0.00332   0.00523   2.12375
   A21        2.02586   0.00054  -0.00244   0.00314   0.00070   2.02656
   A22        2.10321   0.00093  -0.00032   0.00421   0.00388   2.10709
   A23        2.09042  -0.00182  -0.00134  -0.01062  -0.01195   2.07846
   A24        2.08956   0.00089   0.00166   0.00640   0.00807   2.09763
   A25        2.12771   0.00090   0.00157   0.00303   0.00461   2.13232
   A26        2.05095   0.00022  -0.00182   0.00369   0.00186   2.05280
   A27        2.10453  -0.00112   0.00025  -0.00672  -0.00647   2.09806
   A28        2.11205  -0.00026   0.00159  -0.00197  -0.00037   2.11168
   A29        2.08335   0.00020  -0.00247   0.00238  -0.00009   2.08326
   A30        2.08778   0.00007   0.00088  -0.00042   0.00046   2.08825
   A31        2.10050  -0.00057   0.00060  -0.00329  -0.00268   2.09782
   A32        2.09440  -0.00035   0.00010  -0.00299  -0.00290   2.09150
   A33        2.08828   0.00092  -0.00070   0.00628   0.00558   2.09387
   A34        2.12976   0.00040   0.00140  -0.00024   0.00117   2.13093
   A35        2.02184   0.00075  -0.00115   0.00695   0.00579   2.02763
   A36        2.13158  -0.00115  -0.00024  -0.00671  -0.00696   2.12462
   A37        2.09983   0.00009   0.00038  -0.00043  -0.00004   2.09979
   A38        2.08914   0.00081  -0.00051   0.00628   0.00577   2.09491
   A39        2.09422  -0.00090   0.00013  -0.00586  -0.00573   2.08849
    D1       -0.00027   0.00000  -0.00002   0.00007   0.00006  -0.00021
    D2        3.14148  -0.00000  -0.00008  -0.00015  -0.00023   3.14125
    D3        3.14112   0.00000   0.00003   0.00019   0.00022   3.14135
    D4       -0.00032  -0.00000  -0.00003  -0.00004  -0.00006  -0.00038
    D5        0.00023  -0.00000  -0.00000  -0.00006  -0.00006   0.00017
    D6        3.14158   0.00000   0.00008   0.00009   0.00017  -3.14144
    D7       -3.14116  -0.00000  -0.00005  -0.00017  -0.00022  -3.14138
    D8        0.00019   0.00000   0.00003  -0.00003   0.00000   0.00019
    D9       -0.00072   0.00001   0.00010   0.00038   0.00048  -0.00025
   D10        3.14159  -0.00000  -0.00004  -0.00008  -0.00012   3.14147
   D11        3.14067   0.00001   0.00015   0.00049   0.00064   3.14131
   D12       -0.00020   0.00000   0.00001   0.00003   0.00005  -0.00016
   D13        0.00010   0.00000   0.00006  -0.00007  -0.00001   0.00009
   D14        3.14156   0.00000  -0.00002   0.00006   0.00004  -3.14159
   D15        3.14154   0.00000   0.00012   0.00016   0.00028  -3.14136
   D16       -0.00019   0.00001   0.00005   0.00028   0.00033   0.00014
   D17       -3.13954  -0.00002  -0.00005  -0.00207  -0.00212   3.14153
   D18        0.00162  -0.00001  -0.00011  -0.00047  -0.00058   0.00104
   D19        0.00221  -0.00002  -0.00011  -0.00230  -0.00241  -0.00020
   D20       -3.13982  -0.00001  -0.00017  -0.00070  -0.00087  -3.14069
   D21       -0.00003   0.00000  -0.00002   0.00003   0.00001  -0.00002
   D22        3.14157  -0.00000   0.00003  -0.00005  -0.00002   3.14156
   D23       -3.14137  -0.00000  -0.00010  -0.00012  -0.00022   3.14159
   D24        0.00023  -0.00000  -0.00005  -0.00020  -0.00025  -0.00002
   D25       -0.00004  -0.00000  -0.00005  -0.00000  -0.00005  -0.00009
   D26       -3.14158  -0.00000  -0.00007  -0.00004  -0.00011   3.14149
   D27        3.14130   0.00000   0.00004   0.00014   0.00018   3.14149
   D28       -0.00024   0.00000   0.00002   0.00010   0.00012  -0.00012
   D29        0.00037  -0.00000  -0.00002  -0.00018  -0.00020   0.00017
   D30       -3.14112  -0.00000  -0.00015  -0.00014  -0.00029  -3.14142
   D31        3.14123   0.00001   0.00012   0.00029   0.00041  -3.14155
   D32       -0.00027   0.00001  -0.00001   0.00033   0.00032   0.00005
   D33        0.00007  -0.00000  -0.00004  -0.00001  -0.00005   0.00002
   D34       -3.14149  -0.00000   0.00007  -0.00008  -0.00001  -3.14150
   D35       -3.14078  -0.00001  -0.00018  -0.00048  -0.00066  -3.14145
   D36        0.00084  -0.00001  -0.00006  -0.00055  -0.00062   0.00022
   D37        0.00010  -0.00000  -0.00008   0.00004  -0.00004   0.00006
   D38       -3.14138  -0.00000  -0.00009  -0.00007  -0.00016  -3.14155
   D39       -3.14135  -0.00000  -0.00000  -0.00008  -0.00009  -3.14144
   D40        0.00035  -0.00000  -0.00001  -0.00020  -0.00021   0.00014
   D41       -0.00013  -0.00000   0.00006  -0.00002   0.00004  -0.00010
   D42        3.14135   0.00000   0.00007   0.00009   0.00016   3.14151
   D43        3.14145   0.00000   0.00001   0.00006   0.00006   3.14151
   D44       -0.00026   0.00000   0.00002   0.00017   0.00019  -0.00007
   D45        3.13916   0.00002   0.00013   0.00225   0.00239   3.14155
   D46       -0.00184   0.00002   0.00016   0.00207   0.00224   0.00040
   D47       -0.00200   0.00001   0.00019   0.00067   0.00086  -0.00114
   D48        3.14019   0.00001   0.00022   0.00049   0.00071   3.14090
   D49       -0.00010   0.00000   0.00002   0.00003   0.00005  -0.00005
   D50       -3.14151  -0.00000  -0.00006  -0.00005  -0.00010   3.14157
   D51        3.14144   0.00000   0.00004   0.00007   0.00011   3.14156
   D52        0.00003  -0.00000  -0.00003  -0.00001  -0.00004  -0.00001
   D53        0.00105  -0.00001  -0.00012  -0.00037  -0.00049   0.00056
   D54       -3.14118  -0.00000  -0.00016  -0.00017  -0.00033  -3.14150
   D55       -3.14064  -0.00001   0.00001  -0.00041  -0.00040  -3.14104
   D56        0.00031  -0.00001  -0.00002  -0.00021  -0.00023   0.00008
   D57        0.00009   0.00000   0.00002  -0.00002  -0.00000   0.00009
   D58        3.14150   0.00000   0.00010   0.00005   0.00015  -3.14153
   D59       -3.14154   0.00000  -0.00009   0.00005  -0.00004  -3.14158
   D60       -0.00013   0.00000  -0.00001   0.00013   0.00011  -0.00001
         Item               Value     Threshold  Converged?
 Maximum Force            0.003514     0.000450     NO 
 RMS     Force            0.000806     0.000300     NO 
 Maximum Displacement     0.013927     0.001800     NO 
 RMS     Displacement     0.003210     0.001200     NO 
 Predicted change in Energy=-1.498044D-04
 GradGradGradGradGradGradGradGradGradGradGradGradGradGradGradGradGradGrad

                          Input orientation:                          
 ---------------------------------------------------------------------
 Center     Atomic      Atomic             Coordinates (Angstroms)
 Number     Number       Type             X           Y           Z
 ---------------------------------------------------------------------
      1          8           0        0.915884    0.033721    0.051544
      2          6           0        4.367427   -1.163816    0.065657
      3          6           0        2.946764   -1.217014    0.059766
      4          6           0        5.119794   -2.377572    0.068956
      5          6           0        5.050087    0.087333    0.068269
      6          6           0        2.307707   -2.448539    0.057034
      7          6           0        4.423204   -3.610928    0.066024
      8          6           0        2.148642    0.038754    0.056715
      9          6           0        6.538788   -2.305672    0.075033
     10          6           0        4.264881    1.304882    0.064475
     11          6           0        6.438208    0.108500    0.074178
     12          6           0        3.043249   -3.644545    0.060116
     13          6           0        2.913635    1.289662    0.058765
     14          6           0        7.181700   -1.087655    0.077609
     15          1           0        1.223892   -2.468300    0.052538
     16          1           0        4.989551   -4.536586    0.068473
     17          1           0        7.113481   -3.225816    0.077649
     18          1           0        4.800858    2.249743    0.066369
     19          1           0        6.955913    1.062465    0.076243
     20          1           0        2.524659   -4.596734    0.057857
     21          1           0        2.332698    2.205890    0.055868
     22          1           0        8.264968   -1.045991    0.082271
 ---------------------------------------------------------------------
                    Distance matrix (angstroms):
                    1          2          3          4          5
     1  O    0.000000
     2  C    3.653415   0.000000
     3  C    2.385137   1.421671   0.000000
     4  C    4.846390   1.428031   2.463542   0.000000
     5  C    4.134584   1.425273   2.474947   2.465890   0.000000
     6  C    2.845841   2.427558   1.387463   2.813009   3.735160
     7  C    5.058159   2.447748   2.812604   1.416480   3.751016
     8  C    1.232779   2.523739   1.487938   3.829690   2.901874
     9  C    6.090185   2.453310   3.753404   1.420827   2.818288
    10  C    3.582150   2.470827   2.845596   3.780392   1.448789
    11  C    5.522876   2.430430   3.734619   2.814035   1.388295
    12  C    4.249164   2.812028   2.429448   2.432559   4.237261
    13  C    2.359756   2.851861   2.506895   4.279701   2.451552
    14  C    6.365423   2.815328   4.236949   2.432162   2.434021
    15  H    2.520909   3.403478   2.129332   3.896993   4.601225
    16  H    6.122316   3.429668   3.897770   2.162939   4.624315
    17  H    7.002533   3.434065   4.625704   2.166652   3.903158
    18  H    4.472582   3.440965   3.931426   4.638293   2.176726
    19  H    6.127061   3.414191   4.611895   3.899389   2.140822
    20  H    4.901970   3.896252   3.405977   3.414605   5.321501
    21  H    2.593395   3.936386   3.477552   5.364345   3.445669
    22  H    7.428038   3.899357   5.321001   3.415465   3.408824
                    6          7          8          9         10
     6  C    0.000000
     7  C    2.413827   0.000000
     8  C    2.492373   4.300453   0.000000
     9  C    4.233531   2.485854   4.976951   0.000000
    10  C    4.233055   4.918360   2.466092   4.266950   0.000000
    11  C    4.857960   4.230183   4.290168   2.416266   2.480882
    12  C    1.404088   1.380377   3.790386   3.743207   5.097964
    13  C    3.786990   5.127829   1.466284   5.105724   1.351344
    14  C    5.060458   3.738494   5.157606   1.377282   3.772564
    15  H    1.084004   3.397260   2.672171   5.317430   4.846098
    16  H    3.398877   1.085171   5.385595   2.716092   5.886248
[...]
     17          1           0        7.110488   -3.228119    0.077544
     18          1           0        4.796813    2.251081    0.066692
     19          1           0        6.957978    1.061193    0.076142
     20          1           0        2.523404   -4.596159    0.058219
     21          1           0        2.335472    2.208092    0.056400
     22          1           0        8.265242   -1.045141    0.082064
 ---------------------------------------------------------------------
                    Distance matrix (angstroms):
                    1          2          3          4          5
     1  O    0.000000
     2  C    3.653992   0.000000
     3  C    2.385238   1.421768   0.000000
     4  C    4.844812   1.425510   2.461869   0.000000
     5  C    4.135252   1.426800   2.475666   2.465313   0.000000
     6  C    2.845585   2.427073   1.387256   2.811789   3.735778
     7  C    5.058063   2.446515   2.812407   1.416544   3.751398
     8  C    1.233202   2.524672   1.488816   3.828542   2.902107
     9  C    6.089965   2.452444   3.753010   1.421547   2.818535
    10  C    3.581573   2.471294   2.844838   3.778642   1.448457
    11  C    5.523114   2.430623   3.734509   2.813264   1.387863
    12  C    4.249371   2.811285   2.429591   2.431960   4.238050
    13  C    2.359249   2.853330   2.507034   4.278655   2.452544
    14  C    6.365918   2.815254   4.236976   2.431939   2.434674
    15  H    2.521457   3.403743   2.129946   3.896012   4.602551
    16  H    6.123116   3.427544   3.897903   2.162049   4.623124
    17  H    7.000835   3.432214   4.623759   2.166166   3.903806
    18  H    4.470220   3.442779   3.930866   4.638700   2.177973
    19  H    6.129183   3.415394   4.613063   3.898703   2.141401
    20  H    4.900479   3.895557   3.405317   3.415170   5.322340
    21  H    2.597395   3.937867   3.479518   5.363293   3.444823
    22  H    7.428287   3.899412   5.321160   3.416519   3.408570
                    6          7          8          9         10
     6  C    0.000000
     7  C    2.413934   0.000000
     8  C    2.493279   4.301142   0.000000
     9  C    4.233064   2.485056   4.977004   0.000000
    10  C    4.232091   4.917586   2.464464   4.266840   0.000000
    11  C    4.857674   4.229520   4.289968   2.416077   2.481471
    12  C    1.404548   1.380288   3.791659   3.742513   5.097396
    13  C    3.786717   5.127980   1.464773   5.106327   1.351621
    14  C    5.060111   3.737301   5.158034   1.376504   3.773729
    15  H    1.084239   3.397271   2.674087   5.317212   4.845982
    16  H    3.400453   1.085496   5.386628   2.712345   5.884452
    17  H    4.865418   2.713876   5.941041   1.085271   5.352089
    18  H    5.318057   5.873665   3.450003   4.878393   1.086409
    19  H    5.825964   5.315004   4.916471   3.392986   2.704887
    20  H    2.158312   2.140661   4.650836   4.622528   6.151826
    21  H    4.656800   6.182199   2.176535   6.167771   2.129887
    22  H    6.120423   4.619480   6.211871   2.137899   4.639987
                   11         12         13         14         15
    11  C    0.000000
    12  C    5.060436   0.000000
    13  C    3.718380   4.936201   0.000000
    14  C    1.409268   4.863847   4.887184   0.000000
    15  H    5.816696   2.166576   4.120839   6.115892   0.000000
    16  H    4.862715   2.142880   6.184857   4.082289   4.298101
    17  H    3.403394   4.087940   6.167028   2.140455   5.935296
    18  H    2.699297   6.151080   2.115463   4.104140   5.920235
    19  H    1.085488   6.121110   4.051922   2.161680   6.733895
    20  H    6.120247   1.084314   5.898526   5.831225   2.492290
    21  H    4.608961   5.895744   1.084796   5.861590   4.807808
    22  H    2.160607   5.832831   5.839750   1.084227   7.183982
                   16         17         18         19         20
    16  H    0.000000
    17  H    2.488037   0.000000
    18  H    6.788753   5.947676   0.000000
    19  H    5.930914   4.292023   2.467094   0.000000
    20  H    2.470616   4.786779   7.214787   7.188282   0.000000
    21  H    7.247818   7.235580   2.461739   4.762702   6.806846
    22  H    4.783736   2.469589   4.784904   2.479036   6.751222
                   21         22
    21  H    0.000000
    22  H    6.763605   0.000000
 Symmetry turned off by external request.
 Stoichiometry    C13H8O
 Framework group  C1[X(C13H8O)]
 Deg. of freedom    60
 Full point group                 C1      NOp   1
 Rotational constants (GHZ):           1.1090098           0.7872829           0.4604271

 **********************************************************************

            Population analysis using the SCF Density.

 **********************************************************************

 Alpha  occ. eigenvalues --  -19.10053 -10.25933 -10.20187 -10.20164 -10.19996
 Alpha  occ. eigenvalues --  -10.19954 -10.19775 -10.19737 -10.19580 -10.19536
 Alpha  occ. eigenvalues --  -10.19334 -10.19003 -10.18945 -10.18268  -1.03490
 Alpha  occ. eigenvalues --   -0.90302  -0.84826  -0.83350  -0.77144  -0.76262
 Alpha  occ. eigenvalues --   -0.74872  -0.67201  -0.64019  -0.62932  -0.61589
 Alpha  occ. eigenvalues --   -0.53724  -0.53073  -0.52448  -0.51214  -0.48091
 Alpha  occ. eigenvalues --   -0.45761  -0.44780  -0.44271  -0.43307  -0.42439
 Alpha  occ. eigenvalues --   -0.41369  -0.40463  -0.39573  -0.39350  -0.35780
 Alpha  occ. eigenvalues --   -0.35420  -0.35225  -0.32216  -0.27724  -0.26763
 Alpha  occ. eigenvalues --   -0.26035  -0.23428
 Alpha virt. eigenvalues --   -0.10451  -0.03287  -0.02042  -0.00728   0.04887
 Alpha virt. eigenvalues --    0.06194   0.07030   0.08286   0.08794   0.09558
 Alpha virt. eigenvalues --    0.09985   0.11653   0.13201   0.14844   0.20496
 Alpha virt. eigenvalues --    0.20504   0.21808   0.22739   0.24185   0.25012
 Alpha virt. eigenvalues --    0.26774   0.27529   0.28491   0.29318   0.30840
 Alpha virt. eigenvalues --    0.34807   0.35311   0.35535   0.37054   0.38299
 Alpha virt. eigenvalues --    0.38480   0.38552   0.38940   0.39700   0.40912
 Alpha virt. eigenvalues --    0.41962   0.42544   0.43188   0.43618   0.43679
 Alpha virt. eigenvalues --    0.43986   0.45080   0.46234   0.46632   0.46794
 Alpha virt. eigenvalues --    0.49244   0.49812   0.51233   0.51400   0.51919
 Alpha virt. eigenvalues --    0.54801   0.55341   0.58707   0.60035   0.60513
 Alpha virt. eigenvalues --    0.60798   0.61301   0.61816   0.62240   0.62447
 Alpha virt. eigenvalues --    0.63071   0.63283   0.66843   0.67501   0.71029
 Alpha virt. eigenvalues --    0.73123   0.73636   0.74047   0.76569   0.76745
 Alpha virt. eigenvalues --    0.77372   0.79161   0.80811   0.81034   0.82343
 Alpha virt. eigenvalues --    0.83649   0.85740   0.88000   0.89122   0.90173
 Alpha virt. eigenvalues --    0.92476   0.93247   0.93848   0.94452   0.96341
 Alpha virt. eigenvalues --    0.98695   1.02851   1.05756   1.06571   1.07714
 Alpha virt. eigenvalues --    1.08430   1.10015   1.10344   1.12625   1.14151
 Alpha virt. eigenvalues --    1.14639   1.17191   1.17529   1.18644   1.19524
 Alpha virt. eigenvalues --    1.21546   1.22443   1.28394   1.31181   1.31699
 Alpha virt. eigenvalues --    1.35307   1.38591   1.40674   1.42782   1.44572
 Alpha virt. eigenvalues --    1.46029   1.46654   1.47287   1.50608   1.54174
 Alpha virt. eigenvalues --    1.54771   1.54933   1.58896   1.59901   1.63530
 Alpha virt. eigenvalues --    1.66503   1.71326   1.73864   1.76459   1.77501
 Alpha virt. eigenvalues --    1.77963   1.81024   1.81042   1.81893   1.83460
 Alpha virt. eigenvalues --    1.83856   1.85557   1.85963   1.86628   1.92599
 Alpha virt. eigenvalues --    1.93753   1.94519   1.97949   1.98096   1.98357
 Alpha virt. eigenvalues --    1.99789   2.03179   2.05963   2.09216   2.13982
 Alpha virt. eigenvalues --    2.15078   2.19972   2.23782   2.28800   2.29600
 Alpha virt. eigenvalues --    2.31813   2.34790   2.35629   2.37402   2.37742
 Alpha virt. eigenvalues --    2.38548   2.41361   2.41969   2.44058   2.48873
 Alpha virt. eigenvalues --    2.54305   2.55478   2.55954   2.65974   2.66064
 Alpha virt. eigenvalues --    2.67685   2.68577   2.70608   2.72441   2.77171
 Alpha virt. eigenvalues --    2.78346   2.79097   2.80690   2.83649   2.85163
 Alpha virt. eigenvalues --    2.92666   2.93094   2.98753   3.00888   3.06596
 Alpha virt. eigenvalues --    3.06834   3.13283   3.15969   3.17946   3.22418
 Alpha virt. eigenvalues --    3.23111   3.25549   3.26309   3.27715   3.29869
 Alpha virt. eigenvalues --    3.31544   3.31788   3.32962   3.35458   3.36970
 Alpha virt. eigenvalues --    3.41446   3.45708   3.46783   3.50373   3.53285
 Alpha virt. eigenvalues --    3.57933   3.61743   3.63264   3.78372   3.80479
 Alpha virt. eigenvalues --    3.88977   3.98972   4.23326   4.25019   4.69754
 Alpha virt. eigenvalues --    4.76798   4.78919   4.89039   5.05953   5.64489
 Alpha virt. eigenvalues --   23.15650  23.51225  23.56366  23.78275  23.83876
 Alpha virt. eigenvalues --   23.85006  23.88503  23.98703  24.02091  24.03623
 Alpha virt. eigenvalues --   24.11553  24.11628  24.14628  49.98069
          Condensed to atoms (all electrons):
               1          2          3          4          5          6
     1  O    7.853567   0.010326  -0.159115   0.000102  -0.002069   0.015289
     2  C    0.010326   5.099417   0.334944   0.511779   0.420052  -0.105032
     3  C   -0.159115   0.334944   5.725149  -0.068870   0.003712   0.417035
     4  C    0.000102   0.511779  -0.068870   4.839020  -0.054018  -0.055973
     5  C   -0.002069   0.420052   0.003712  -0.054018   4.877009   0.017579
     6  C    0.015289  -0.105032   0.417035  -0.055973   0.017579   5.173290
     7  C   -0.000051  -0.045936  -0.055629   0.474202   0.012477  -0.030115
     8  C    0.714446   0.056410   0.043422   0.011500  -0.069106  -0.077957
     9  C    0.000000  -0.055436   0.012949   0.475752  -0.042874   0.000187
    10  C    0.009461  -0.001283  -0.078680   0.015145   0.378283  -0.006934
    11  C   -0.000011  -0.056801   0.016679  -0.046834   0.529506   0.000377
    12  C    0.001795  -0.046679  -0.030420  -0.026073  -0.001624   0.434607
    13  C   -0.096115  -0.098024  -0.032007  -0.004479   0.009425   0.026817
    14  C    0.000000  -0.043362  -0.001421  -0.029883  -0.032299  -0.000147
    15  H    0.024172   0.005261  -0.065274  -0.000512  -0.000137   0.395608
    16  H   -0.000000   0.006865  -0.000154  -0.044160  -0.000418   0.006198
    17  H   -0.000000   0.006953  -0.000477  -0.044417   0.000146   0.000118
    18  H   -0.000190   0.008340  -0.002374  -0.000409  -0.047356   0.000078
    19  H   -0.000000   0.006287  -0.000350   0.000058  -0.043697   0.000013
    20  H   -0.000025   0.000511   0.007034   0.005750   0.000035  -0.043884
    21  H    0.011558  -0.002759   0.019657   0.000002   0.009226  -0.000547
    22  H    0.000000   0.000663   0.000051   0.005558   0.005397  -0.000003
               7          8          9         10         11         12
     1  O   -0.000051   0.714446   0.000000   0.009461  -0.000011   0.001795
     2  C   -0.045936   0.056410  -0.055436  -0.001283  -0.056801  -0.046679
     3  C   -0.055629   0.043422   0.012949  -0.078680   0.016679  -0.030420
     4  C    0.474202   0.011500   0.475752   0.015145  -0.046834  -0.026073
     5  C    0.012477  -0.069106  -0.042874   0.378283   0.529506  -0.001624
     6  C   -0.030115  -0.077957   0.000187  -0.006934   0.000377   0.434607
     7  C    5.021893  -0.002188  -0.066121  -0.000391   0.000293   0.525973
     8  C   -0.002188   4.743521  -0.000079   0.024296  -0.002074   0.012993
     9  C   -0.066121  -0.000079   5.012304  -0.000163  -0.049833   0.005595
    10  C   -0.000391   0.024296  -0.000163   5.102906  -0.070879   0.000196
    11  C    0.000293  -0.002074  -0.049833  -0.070879   5.030686  -0.000114
    12  C    0.525973   0.012993   0.005595   0.000196  -0.000114   5.005680
    13  C    0.000159   0.337445   0.000126   0.450578   0.008058  -0.000348
    14  C    0.005231   0.000110   0.550774   0.006675   0.486530  -0.000114
    15  H    0.006603  -0.006834   0.000044  -0.000438   0.000016  -0.036562
    16  H    0.391455   0.000014  -0.002860   0.000001   0.000079  -0.039601
    17  H   -0.002620  -0.000006   0.390665   0.000024   0.006000   0.000111
    18  H   -0.000001   0.006712   0.000062   0.387124  -0.003366   0.000005
    19  H    0.000030   0.000003   0.005748  -0.003614   0.391371  -0.000000
    20  H   -0.042203  -0.000288  -0.000422   0.000005  -0.000003   0.401793
    21  H    0.000007  -0.054662  -0.000003  -0.040597  -0.000250  -0.000018
    22  H   -0.000431   0.000002  -0.040418  -0.000405  -0.042188   0.000009
              13         14         15         16         17         18
     1  O   -0.096115   0.000000   0.024172  -0.000000  -0.000000  -0.000190
     2  C   -0.098024  -0.043362   0.005261   0.006865   0.006953   0.008340
     3  C   -0.032007  -0.001421  -0.065274  -0.000154  -0.000477  -0.002374
     4  C   -0.004479  -0.029883  -0.000512  -0.044160  -0.044417  -0.000409
     5  C    0.009425  -0.032299  -0.000137  -0.000418   0.000146  -0.047356
     6  C    0.026817  -0.000147   0.395608   0.006198   0.000118   0.000078
     7  C    0.000159   0.005231   0.006603   0.391455  -0.002620  -0.000001
     8  C    0.337445   0.000110  -0.006834   0.000014  -0.000006   0.006712
     9  C    0.000126   0.550774   0.000044  -0.002860   0.390665   0.000062
    10  C    0.450578   0.006675  -0.000438   0.000001   0.000024   0.387124
    11  C    0.008058   0.486530   0.000016   0.000079   0.006000  -0.003366
    12  C   -0.000348  -0.000114  -0.036562  -0.039601   0.000111   0.000005
    13  C    5.336820  -0.000365   0.002636   0.000004   0.000003  -0.033246
    14  C   -0.000365   4.950230  -0.000002   0.000183  -0.038803   0.000136
    15  H    0.002636  -0.000002   0.466859  -0.000270  -0.000002   0.000009
    16  H    0.000004   0.000183  -0.000270   0.457427   0.004038  -0.000001
    17  H    0.000003  -0.038803  -0.000002   0.004038   0.458909  -0.000003
    18  H   -0.033246   0.000136   0.000009  -0.000001  -0.000003   0.462884
    19  H    0.000491  -0.039413  -0.000000  -0.000002  -0.000298   0.004052
    20  H   -0.000008   0.000009  -0.005770  -0.006067  -0.000027   0.000000
    21  H    0.374628   0.000007  -0.000125   0.000000   0.000000  -0.010503
    22  H    0.000001   0.400352   0.000000  -0.000027  -0.006079  -0.000015
              19         20         21         22
     1  O   -0.000000  -0.000025   0.011558   0.000000
     2  C    0.006287   0.000511  -0.002759   0.000663
     3  C   -0.000350   0.007034   0.019657   0.000051
     4  C    0.000058   0.005750   0.000002   0.005558
     5  C   -0.043697   0.000035   0.009226   0.005397
     6  C    0.000013  -0.043884  -0.000547  -0.000003
     7  C    0.000030  -0.042203   0.000007  -0.000431
     8  C    0.000003  -0.000288  -0.054662   0.000002
     9  C    0.005748  -0.000422  -0.000003  -0.040418
    10  C   -0.003614   0.000005  -0.040597  -0.000405
    11  C    0.391371  -0.000003  -0.000250  -0.042188
    12  C   -0.000000   0.401793  -0.000018   0.000009
    13  C    0.000491  -0.000008   0.374628   0.000001
    14  C   -0.039413   0.000009   0.000007   0.400352
    15  H   -0.000000  -0.005770  -0.000125   0.000000
    16  H   -0.000002  -0.006067   0.000000  -0.000027
    17  H   -0.000298  -0.000027   0.000000  -0.006079
    18  H    0.004052   0.000000  -0.010503  -0.000015
    19  H    0.456308   0.000000  -0.000036  -0.005254
    20  H    0.000000   0.460686  -0.000001  -0.000000
    21  H   -0.000036  -0.000001   0.484028  -0.000001
    22  H   -0.005254  -0.000000  -0.000001   0.460502
 Mulliken charges:
               1
     1  O   -0.383138
     2  C   -0.012495
     3  C   -0.085860
     4  C    0.036759
     5  C    0.030752
     6  C   -0.166607
     7  C   -0.192638
     8  C    0.262319
     9  C   -0.195997
    10  C   -0.171311
    11  C   -0.197241
    12  C   -0.207204
    13  C   -0.282598
    14  C   -0.214429
    15  H    0.214717
    16  H    0.227296
    17  H    0.225765
    18  H    0.228063
    19  H    0.228303
    20  H    0.222875
    21  H    0.210386
    22  H    0.222286
 Sum of Mulliken charges =  -0.00000
 Mulliken charges with hydrogens summed into heavy atoms:
               1
     1  O   -0.383138
     2  C   -0.012495
     3  C   -0.085860
     4  C    0.036759
     5  C    0.030752
     6  C    0.048110
     7  C    0.034658
     8  C    0.262319
     9  C    0.029767
    10  C    0.056751
    11  C    0.031062
    12  C    0.015672
    13  C   -0.072213
    14  C    0.007856
 Electronic spatial extent (au):  <R**2>=           8324.7340
 Charge=              0.0000 electrons
 Dipole moment (field-independent basis, Debye):
    X=              6.2955    Y=             -1.7963    Z=              0.0274  Tot=              6.5468
 Quadrupole moment (field-independent basis, Debye-Ang):
   XX=            -32.4151   YY=            -59.6995   ZZ=            -84.5741
   XY=             -6.9718   XZ=              0.5172   YZ=             -0.1178
 Traceless Quadrupole moment (field-independent basis, Debye-Ang):
   XX=             26.4811   YY=             -0.8033   ZZ=            -25.6779
   XY=             -6.9718   XZ=              0.5172   YZ=             -0.1178
 Octapole moment (field-independent basis, Debye-Ang**2):
  XXX=           -632.4057  YYY=            191.2945  ZZZ=            -16.4503  XYY=           -244.0426
  XXY=             37.5663  XXZ=             -1.2022  XZZ=           -354.7587  YZZ=             92.8035
  YYZ=             -3.8373  XYZ=             -0.5788
 Hexadecapole moment (field-independent basis, Debye-Ang**3):
 XXXX=          -7101.9097 YYYY=          -1584.6495 ZZZZ=            -95.2800 XXXY=            754.1455
 XXXZ=            -36.9673 YYYX=            847.8416 YYYZ=             12.6387 ZZZX=            -72.6079
 ZZZY=             18.4058 XXYY=          -1507.5510 XXZZ=          -1802.5340 YYZZ=           -374.1163
 XXYZ=              1.4424 YYXZ=            -16.2622 ZZXY=            408.6109
 N-N= 7.889285598692D+02 E-N=-2.916898631099D+03  KE= 5.732936107168D+02
 Unable to Open any file for archive entry.
 1\1\GINC-SE440\FOpt\RB3LYP\6-311G(d)\C13H8O1\KEIGHAN\10-Jun-2024\0\\# 
 opt B3LYP/6-311g* scrf=(solvent=water) int=ultrafine Nosymm\\PN ground
  state geometry optimization\\0,1\O,0.9156917913,0.0330853405,0.050648
 1236\C,4.3677026866,-1.1648513876,0.065590431\C,2.9469141721,-1.217280
 6832,0.0596324908\C,5.1187989832,-2.3764299126,0.0689326129\C,5.050542
 7232,0.0879382543,0.06826949\C,2.3079618637,-2.4486267336,0.0570772139
 \C,4.4237416247,-3.6107244512,0.066136895\C,2.1488636536,0.0395709279,
 0.0562525523\C,6.5385765857,-2.3057723332,0.0749554408\C,4.2640593784,
 1.3042678368,0.064707202\C,6.4382449631,0.1082206055,0.0741244711\C,3.
 0438899074,-3.6449353689,0.060312603\C,2.912530574,1.2895174212,0.0590
 511924\C,7.1819055705,-1.0888564504,0.0774845746\H,1.2239320464,-2.469
 4591123,0.0525474376\H,4.9932365271,-4.5348302066,0.0686271469\H,7.110
 4883713,-3.2281193936,0.0775435679\H,4.79681342,2.2510807849,0.0666921
 516\H,6.957978216,1.0611931841,0.0761422677\H,2.5234036616,-4.59615882
 7,0.0582188341\H,2.3354716818,2.2080917644,0.0563996058\H,8.2652415983
 ,-1.0451412594,0.082063695\\Version=ES64L-G16RevC.01\HF=-575.5725519\R
 MSD=2.786e-09\RMSF=7.568e-05\Dipole=2.476834,-0.7067374,0.010774\Quadr
 upole=19.6880754,-0.5971987,-19.0908767,-5.1833729,0.3845567,-0.087544
 8\PG=C01 [X(C13H8O1)]\\@
 The archive entry for this job was punched.


 I LOVE MANKIND - IT'S PEOPLE I CAN'T STAND.
     -- LINUS OF PEANUTS
 Job cpu time:       0 days  0 hours 56 minutes 45.7 seconds.
 Elapsed time:       0 days  0 hours 16 minutes 28.8 seconds.
 File lengths (MBytes):  RWF=     94 Int=      0 D2E=      0 Chk=     22 Scr=      1
 Normal termination of Gaussian 16 at Mon Jun 10 14:08:51 2024.
