 Entering Gaussian System, Link 0=g16
 Initial command:
 /arc/software/Gaussian/g16.c01/l1.exe "/tmp/slurm/1150902/Gau-54718.inp" -scrdir="/tmp/slurm/1150902/"
 Entering Link 1 = /arc/software/Gaussian/g16.c01/l1.exe PID=     54723.
  
 Copyright (c) 1988-2019, Gaussian, Inc.  All Rights Reserved.
  
 This is part of the Gaussian(R) 16 program.  It is based on
 the Gaussian(R) 09 system (copyright 2009, Gaussian, Inc.),
 the Gaussian(R) 03 system (copyright 2003, Gaussian, Inc.),
 the Gaussian(R) 98 system (copyright 1998, Gaussian, Inc.),
 the Gaussian(R) 94 system (copyright 1995, Gaussian, Inc.),
 the Gaussian 92(TM) system (copyright 1992, Gaussian, Inc.),
 the Gaussian 90(TM) system (copyright 1990, Gaussian, Inc.),
 the Gaussian 88(TM) system (copyright 1988, Gaussian, Inc.),
 the Gaussian 86(TM) system (copyright 1986, Carnegie Mellon
 University), and the Gaussian 82(TM) system (copyright 1983,
 Carnegie Mellon University). Gaussian is a federally registered
 trademark of Gaussian, Inc.
  
 This software contains proprietary and confidential information,
 including trade secrets, belonging to Gaussian, Inc.
  
 This software is provided under written license and may be
 used, copied, transmitted, or stored only in accord with that
 written license.
  
 The following legend is applicable only to US Government
 contracts under FAR:
  
                    RESTRICTED RIGHTS LEGEND
  
 Use, reproduction and disclosure by the US Government is
 subject to restrictions as set forth in subparagraphs (a)
 and (c) of the Commercial Computer Software - Restricted
 Rights clause in FAR 52.227-19.
  
 Gaussian, Inc.
 340 Quinnipiac St., Bldg. 40, Wallingford CT 06492
  
  
 ---------------------------------------------------------------
 Warning -- This program may not be used in any manner that
 competes with the business of Gaussian, Inc. or will provide
 assistance to any competitor of Gaussian, Inc.  The licensee
 of this program is prohibited from giving any competitor of
 Gaussian, Inc. access to this program.  By using this program,
 the user acknowledges that Gaussian, Inc. is engaged in the
 business of creating and licensing software in the field of
 computational chemistry and represents and warrants to the
 licensee that it is not a competitor of Gaussian, Inc. and that
 it will not use this program in any manner prohibited above.
 ---------------------------------------------------------------
  

 Cite this work as:
 Gaussian 16, Revision C.01,
 M. J. Frisch, G. W. Trucks, H. B. Schlegel, G. E. Scuseria, 
 M. A. Robb, J. R. Cheeseman, G. Scalmani, V. Barone, 
 G. A. Petersson, H. Nakatsuji, X. Li, M. Caricato, A. V. Marenich, 
 J. Bloino, B. G. Janesko, R. Gomperts, B. Mennucci, H. P. Hratchian, 
 J. V. Ortiz, A. F. Izmaylov, J. L. Sonnenberg, D. Williams-Young, 
 F. Ding, F. Lipparini, F. Egidi, J. Goings, B. Peng, A. Petrone, 
 T. Henderson, D. Ranasinghe, V. G. Zakrzewski, J. Gao, N. Rega, 
 G. Zheng, W. Liang, M. Hada, M. Ehara, K. Toyota, R. Fukuda, 
 J. Hasegawa, M. Ishida, T. Nakajima, Y. Honda, O. Kitao, H. Nakai, 
 T. Vreven, K. Throssell, J. A. Montgomery, Jr., J. E. Peralta, 
 F. Ogliaro, M. J. Bearpark, J. J. Heyd, E. N. Brothers, K. N. Kudin, 
 V. N. Staroverov, T. A. Keith, R. Kobayashi, J. Normand, 
 K. Raghavachari, A. P. Rendell, J. C. Burant, S. S. Iyengar, 
 J. Tomasi, M. Cossi, J. M. Millam, M. Klene, C. Adamo, R. Cammi, 
 J. W. Ochterski, R. L. Martin, K. Morokuma, O. Farkas, 
 J. B. Foresman, and D. J. Fox, Gaussian, Inc., Wallingford CT, 2019.
 
 ******************************************
 Gaussian 16:  ES64L-G16RevC.01  3-Jul-2019
                10-Jun-2024 
 ******************************************
 %chk=ground_state_opt.chk
 %mem=128GB
 %nprocshared=4
 Will use up to    4 processors via shared memory.
 ----------------------------------------------------------------------
 # M062X/6-311g* TDA=(triplet,root=1) scrf=(solvent=water) int=ultrafin
 e Nosymm geom=checkpoint
 ----------------------------------------------------------------------
 1/29=2,38=1,172=1/1;
 2/12=2,15=1,40=1/2;
 3/5=4,6=6,7=1,11=9,14=-4,25=1,30=1,70=2201,72=1,74=-55,75=-5/1,2,3,8;
 4//1;
 5/5=2,38=5,53=1/2;
 8/6=1,10=2,107=1/1;
 9/8=1,42=1,48=3/14;
 6/7=2,8=2,9=2,10=2/1;
 99/5=1,9=1/99;
 ----------------------------
 PN triplet state calculation
 ----------------------------
 Structure from the checkpoint file:  "ground_state_opt.chk"
 Charge =  0 Multiplicity = 3
 Redundant internal coordinates found in file.  (old form).
 O,0,0.9156917913,0.0330853405,0.0506481236
 C,0,4.3677026866,-1.1648513876,0.065590431
 C,0,2.9469141721,-1.2172806832,0.0596324908
 C,0,5.1187989832,-2.3764299126,0.0689326129
 C,0,5.0505427232,0.0879382543,0.06826949
 C,0,2.3079618637,-2.4486267336,0.0570772139
 C,0,4.4237416247,-3.6107244512,0.066136895
 C,0,2.1488636536,0.0395709279,0.0562525523
 C,0,6.5385765857,-2.3057723332,0.0749554408
 C,0,4.2640593784,1.3042678368,0.064707202
 C,0,6.4382449631,0.1082206055,0.0741244711
 C,0,3.0438899074,-3.6449353689,0.060312603
 C,0,2.912530574,1.2895174212,0.0590511924
 C,0,7.1819055705,-1.0888564504,0.0774845746
 H,0,1.2239320464,-2.4694591123,0.0525474376
 H,0,4.9932365271,-4.5348302066,0.0686271469
 H,0,7.1104883713,-3.2281193936,0.0775435679
 H,0,4.79681342,2.2510807849,0.0666921516
 H,0,6.957978216,1.0611931841,0.0761422677
 H,0,2.5234036616,-4.596158827,0.0582188341
 H,0,2.3354716818,2.2080917644,0.0563996058
 H,0,8.2652415983,-1.0451412594,0.082063695
 Recover connectivity data from disk.
                           ----------------------------
                           !    Current Parameters    !
                           ! (Angstroms and Degrees)  !
 --------------------------                            --------------------------
 ! Name  Definition              Value                                          !
 --------------------------------------------------------------------------------
 ! R1    R(1,8)                  1.2332                                         !
 ! R2    R(2,3)                  1.4218                                         !
 ! R3    R(2,4)                  1.4255                                         !
 ! R4    R(2,5)                  1.4268                                         !
 ! R5    R(3,6)                  1.3873                                         !
 ! R6    R(3,8)                  1.4888                                         !
 ! R7    R(4,7)                  1.4165                                         !
 ! R8    R(4,9)                  1.4215                                         !
 ! R9    R(5,10)                 1.4485                                         !
 ! R10   R(5,11)                 1.3879                                         !
 ! R11   R(6,12)                 1.4045                                         !
 ! R12   R(6,15)                 1.0842                                         !
 ! R13   R(7,12)                 1.3803                                         !
 ! R14   R(7,16)                 1.0855                                         !
 ! R15   R(8,13)                 1.4648                                         !
 ! R16   R(9,14)                 1.3765                                         !
 ! R17   R(9,17)                 1.0853                                         !
 ! R18   R(10,13)                1.3516                                         !
 ! R19   R(10,18)                1.0864                                         !
 ! R20   R(11,14)                1.4093                                         !
 ! R21   R(11,19)                1.0855                                         !
 ! R22   R(12,20)                1.0843                                         !
 ! R23   R(13,21)                1.0848                                         !
 ! R24   R(14,22)                1.0842                                         !
 ! A1    A(3,2,4)              119.683                                          !
 ! A2    A(3,2,5)              120.7064                                         !
 ! A3    A(4,2,5)              119.6106                                         !
 ! A4    A(2,3,6)              119.5386                                         !
 ! A5    A(2,3,8)              120.3008                                         !
 ! A6    A(6,3,8)              120.1606                                         !
 ! A7    A(2,4,7)              118.8187                                         !
 ! A8    A(2,4,9)              118.9473                                         !
 ! A9    A(7,4,9)              122.234                                          !
 ! A10   A(2,5,10)             118.5198                                         !
 ! A11   A(2,5,11)             119.4304                                         !
 ! A12   A(10,5,11)            122.0498                                         !
 ! A13   A(3,6,12)             120.9761                                         !
 ! A14   A(3,6,15)             118.5262                                         !
 ! A15   A(12,6,15)            120.4977                                         !
 ! A16   A(4,7,12)             120.8052                                         !
 ! A17   A(4,7,16)             118.9707                                         !
 ! A18   A(12,7,16)            120.2241                                         !
 ! A19   A(1,8,3)              122.1128                                         !
 ! A20   A(1,8,13)             121.7247                                         !
 ! A21   A(3,8,13)             116.1624                                         !
 ! A22   A(4,9,14)             120.7126                                         !
 ! A23   A(4,9,17)             118.9527                                         !
 ! A24   A(14,9,17)            120.3347                                         !
 ! A25   A(5,10,13)            122.2618                                         !
 ! A26   A(5,10,18)            117.7471                                         !
 ! A27   A(13,10,18)           119.9911                                         !
 ! A28   A(5,11,14)            121.0127                                         !
 ! A29   A(5,11,19)            119.4448                                         !
 ! A30   A(14,11,19)           119.5425                                         !
 ! A31   A(6,12,7)             120.1784                                         !
 ! A32   A(6,12,20)            119.7148                                         !
 ! A33   A(7,12,20)            120.1068                                         !
 ! A34   A(8,13,10)            122.0487                                         !
 ! A35   A(8,13,21)            116.4388                                         !
 ! A36   A(10,13,21)           121.5125                                         !
 ! A37   A(9,14,11)            120.2863                                         !
 ! A38   A(9,14,22)            120.1743                                         !
 ! A39   A(11,14,22)           119.5393                                         !
 ! D1    D(4,2,3,6)             -0.003                                          !
 ! D2    D(4,2,3,8)            179.9926                                         !
 ! D3    D(5,2,3,6)            179.9973                                         !
 ! D4    D(5,2,3,8)             -0.0071                                         !
 ! D5    D(3,2,4,7)              0.0032                                         !
 ! D6    D(3,2,4,9)           -179.9967                                         !
 ! D7    D(5,2,4,7)           -179.9971                                         !
 ! D8    D(5,2,4,9)              0.003                                          !
 ! D9    D(3,2,5,10)            -0.0035                                         !
 ! D10   D(3,2,5,11)           179.9985                                         !
 ! D11   D(4,2,5,10)           179.9968                                         !
 ! D12   D(4,2,5,11)            -0.0012                                         !
 ! D13   D(2,3,6,12)             0.0011                                         !
 ! D14   D(2,3,6,15)           179.9989                                         !
 ! D15   D(8,3,6,12)          -179.9945                                         !
 ! D16   D(8,3,6,15)             0.0033                                         !
 ! D17   D(2,3,8,1)            179.9763                                         !
 ! D18   D(2,3,8,13)             0.0162                                         !
 ! D19   D(6,3,8,1)             -0.0281                                         !
 ! D20   D(6,3,8,13)          -179.9882                                         !
 ! D21   D(2,4,7,12)            -0.0015                                         !
 ! D22   D(2,4,7,16)           179.9973                                         !
 ! D23   D(9,4,7,12)           179.9984                                         !
 ! D24   D(9,4,7,16)            -0.0028                                         !
 ! D25   D(2,4,9,14)            -0.0025                                         !
 ! D26   D(2,4,9,17)           179.9974                                         !
 ! D27   D(7,4,9,14)           179.9976                                         !
 ! D28   D(7,4,9,17)            -0.0025                                         !
 ! D29   D(2,5,10,13)            0.0044                                         !
 ! D30   D(2,5,10,18)         -179.9934                                         !
 ! D31   D(11,5,10,13)        -179.9976                                         !
 ! D32   D(11,5,10,18)           0.0045                                         !
 ! D33   D(2,5,11,14)           -0.0012                                         !
 ! D34   D(2,5,11,19)          179.9987                                         !
 ! D35   D(10,5,11,14)        -179.9992                                         !
 ! D36   D(10,5,11,19)           0.0008                                         !
 ! D37   D(3,6,12,7)             0.0006                                         !
 ! D38   D(3,6,12,20)         -179.9996                                         !
 ! D39   D(15,6,12,7)         -179.9971                                         !
 ! D40   D(15,6,12,20)           0.0026                                         !
 ! D41   D(4,7,12,6)            -0.0004                                         !
 ! D42   D(4,7,12,20)          179.9998                                         !
 ! D43   D(16,7,12,6)         -179.9992                                         !
 ! D44   D(16,7,12,20)           0.001                                          !
 ! D45   D(1,8,13,10)         -179.9759                                         !
 ! D46   D(1,8,13,21)            0.0276                                         !
 ! D47   D(3,8,13,10)           -0.0156                                         !
 ! D48   D(3,8,13,21)          179.9879                                         !
 ! D49   D(4,9,14,11)            0.0001                                         !
 ! D50   D(4,9,14,22)         -179.9989                                         !
 ! D51   D(17,9,14,11)        -179.9998                                         !
 ! D52   D(17,9,14,22)           0.0012                                         !
 ! D53   D(5,10,13,8)            0.0057                                         !
 ! D54   D(5,10,13,21)        -179.998                                          !
 ! D55   D(18,10,13,8)        -179.9966                                         !
 ! D56   D(18,10,13,21)         -0.0002                                         !
 ! D57   D(5,11,14,9)            0.0018                                         !
 ! D58   D(5,11,14,22)        -179.9992                                         !
 ! D59   D(19,11,14,9)        -179.9981                                         !
 ! D60   D(19,11,14,22)          0.0009                                         !
 --------------------------------------------------------------------------------
                          Input orientation:                          
 ---------------------------------------------------------------------
 Center     Atomic      Atomic             Coordinates (Angstroms)
 Number     Number       Type             X           Y           Z
 ---------------------------------------------------------------------
      1          8           0        0.915692    0.033085    0.050648
      2          6           0        4.367703   -1.164851    0.065590
      3          6           0        2.946914   -1.217281    0.059632
      4          6           0        5.118799   -2.376430    0.068933
      5          6           0        5.050543    0.087938    0.068269
      6          6           0        2.307962   -2.448627    0.057077
      7          6           0        4.423742   -3.610724    0.066137
      8          6           0        2.148864    0.039571    0.056253
      9          6           0        6.538577   -2.305772    0.074955
     10          6           0        4.264059    1.304268    0.064707
     11          6           0        6.438245    0.108221    0.074124
     12          6           0        3.043890   -3.644935    0.060313
     13          6           0        2.912531    1.289517    0.059051
     14          6           0        7.181906   -1.088856    0.077485
     15          1           0        1.223932   -2.469459    0.052547
     16          1           0        4.993237   -4.534830    0.068627
     17          1           0        7.110488   -3.228119    0.077544
     18          1           0        4.796813    2.251081    0.066692
     19          1           0        6.957978    1.061193    0.076142
     20          1           0        2.523404   -4.596159    0.058219
     21          1           0        2.335472    2.208092    0.056400
     22          1           0        8.265242   -1.045141    0.082064
 ---------------------------------------------------------------------
                    Distance matrix (angstroms):
                    1          2          3          4          5
     1  O    0.000000
     2  C    3.653992   0.000000
     3  C    2.385238   1.421768   0.000000
     4  C    4.844812   1.425510   2.461869   0.000000
     5  C    4.135252   1.426800   2.475666   2.465313   0.000000
     6  C    2.845585   2.427073   1.387256   2.811789   3.735778
     7  C    5.058063   2.446515   2.812407   1.416544   3.751398
     8  C    1.233202   2.524672   1.488816   3.828542   2.902107
     9  C    6.089965   2.452444   3.753010   1.421547   2.818535
    10  C    3.581573   2.471294   2.844838   3.778642   1.448457
    11  C    5.523114   2.430623   3.734509   2.813264   1.387863
    12  C    4.249371   2.811285   2.429591   2.431960   4.238050
    13  C    2.359249   2.853330   2.507034   4.278655   2.452544
    14  C    6.365918   2.815254   4.236976   2.431939   2.434674
    15  H    2.521457   3.403743   2.129946   3.896012   4.602551
    16  H    6.123116   3.427544   3.897903   2.162049   4.623124
    17  H    7.000835   3.432214   4.623759   2.166166   3.903806
    18  H    4.470220   3.442779   3.930866   4.638700   2.177973
    19  H    6.129183   3.415394   4.613063   3.898703   2.141401
    20  H    4.900479   3.895557   3.405317   3.415170   5.322340
    21  H    2.597395   3.937867   3.479518   5.363293   3.444823
    22  H    7.428287   3.899412   5.321160   3.416519   3.408570
                    6          7          8          9         10
     6  C    0.000000
     7  C    2.413934   0.000000
     8  C    2.493279   4.301142   0.000000
     9  C    4.233064   2.485056   4.977004   0.000000
    10  C    4.232091   4.917586   2.464464   4.266840   0.000000
    11  C    4.857674   4.229520   4.289968   2.416077   2.481471
    12  C    1.404548   1.380288   3.791659   3.742513   5.097396
    13  C    3.786717   5.127980   1.464773   5.106327   1.351621
    14  C    5.060111   3.737301   5.158034   1.376504   3.773729
    15  H    1.084239   3.397271   2.674087   5.317212   4.845982
    16  H    3.400453   1.085496   5.386628   2.712345   5.884452
    17  H    4.865418   2.713876   5.941041   1.085271   5.352089
    18  H    5.318057   5.873665   3.450003   4.878393   1.086409
    19  H    5.825964   5.315004   4.916471   3.392986   2.704887
    20  H    2.158312   2.140661   4.650836   4.622528   6.151826
    21  H    4.656800   6.182199   2.176535   6.167771   2.129887
    22  H    6.120423   4.619480   6.211871   2.137899   4.639987
                   11         12         13         14         15
    11  C    0.000000
    12  C    5.060436   0.000000
    13  C    3.718380   4.936201   0.000000
    14  C    1.409268   4.863847   4.887184   0.000000
    15  H    5.816696   2.166576   4.120839   6.115892   0.000000
    16  H    4.862715   2.142880   6.184857   4.082289   4.298101
    17  H    3.403394   4.087940   6.167028   2.140455   5.935296
    18  H    2.699297   6.151080   2.115463   4.104140   5.920235
    19  H    1.085488   6.121110   4.051922   2.161680   6.733895
    20  H    6.120247   1.084314   5.898526   5.831225   2.492290
    21  H    4.608961   5.895744   1.084796   5.861590   4.807808
    22  H    2.160607   5.832831   5.839750   1.084227   7.183982
                   16         17         18         19         20
    16  H    0.000000
    17  H    2.488037   0.000000
    18  H    6.788753   5.947676   0.000000
    19  H    5.930914   4.292023   2.467094   0.000000
    20  H    2.470616   4.786779   7.214787   7.188282   0.000000
    21  H    7.247818   7.235580   2.461739   4.762702   6.806846
    22  H    4.783736   2.469589   4.784904   2.479036   6.751222
                   21         22
    21  H    0.000000
    22  H    6.763605   0.000000
 Symmetry turned off by external request.
 Stoichiometry    C13H8O(3)
 Framework group  C1[X(C13H8O)]
 Deg. of freedom    60
 Full point group                 C1      NOp   1
 Rotational constants (GHZ):           1.1090098           0.7872829           0.4604271
 Standard basis: 6-311G(d) (5D, 7F)
   276 basis functions,   488 primitive gaussians,   290 cartesian basis functions
    48 alpha electrons       46 beta electrons
       nuclear repulsion energy       788.9285598692 Hartrees.
 NAtoms=   22 NActive=   22 NUniq=   22 SFac= 1.00D+00 NAtFMM=   60 NAOKFM=F Big=F
 Integral buffers will be    131072 words long.
 Regular integral format.
 Two-electron integral symmetry is turned off.
 ------------------------------------------------------------------------------
 Polarizable Continuum Model (PCM)
 =================================
 Model                : PCM.
 Atomic radii         : UFF (Universal Force Field).
 Polarization charges : Total charges.
 Charge compensation  : None.
 Solution method      : On-the-fly selection.
 Cavity type          : Scaled VdW (van der Waals Surface) (Alpha=1.100).
 Cavity algorithm     : GePol (No added spheres)
                        Default sphere list used, NSphG=   22.
                        Lebedev-Laikov grids with approx.  5.0 points / Ang**2.
                        Smoothing algorithm: York/Karplus (Gamma=1.0000).
                        Polarization charges: spherical gaussians, with
                                              point-specific exponents (IZeta= 3).
                        Self-potential: point-specific (ISelfS= 7).
                        Self-field    : sphere-specific E.n sum rule (ISelfD= 2).
 Solvent              : Water, Eps=  78.355300 Eps(inf)=   1.777849
 ------------------------------------------------------------------------------
 One-electron integrals computed using PRISM.
 NBasis=   276 RedAO= T EigKep=  7.34D-05  NBF=   276
 NBsUse=   276 1.00D-06 EigRej= -1.00D+00 NBFU=   276
 ExpMin= 1.03D-01 ExpMax= 8.59D+03 ExpMxC= 1.30D+03 IAcc=3 IRadAn=         5 AccDes= 0.00D+00
 Harris functional with IExCor= 1009 and IRadAn=       5 diagonalized for initial guess.
 HarFok:  IExCor= 1009 AccDes= 0.00D+00 IRadAn=         5 IDoV= 1 UseB2=F ITyADJ=14
 ICtDFT=  3500011 ScaDFX=  1.000000  1.000000  1.000000  1.000000
 FoFCou: FMM=F IPFlag=           0 FMFlag=      100000 FMFlg1=           0
         NFxFlg=           0 DoJE=T BraDBF=F KetDBF=T FulRan=T
         wScrn=  0.000000 ICntrl=       500 IOpCl=  0 I1Cent=   200000004 NGrid=           0
         NMat0=    1 NMatS0=      1 NMatT0=    0 NMatD0=    1 NMtDS0=    0 NMtDT0=    0
 Symmetry not used in FoFCou.
 Initial guess <Sx>= 0.0000 <Sy>= 0.0000 <Sz>= 1.0000 <S**2>= 2.0000 S= 1.0000
 Keep R1 and R2 ints in memory in canonical form, NReq=1473587736.
 Requested convergence on RMS density matrix=1.00D-08 within 128 cycles.
 Requested convergence on MAX density matrix=1.00D-06.
 Requested convergence on             energy=1.00D-06.
 No special actions if energy rises.
 Inv3:  Mode=1 IEnd=     9644547.
 Iteration    1 A*A^-1 deviation from unit magnitude is 5.77D-15 for    423.
 Iteration    1 A*A^-1 deviation from orthogonality  is 1.94D-15 for   1791   1491.
 Iteration    1 A^-1*A deviation from unit magnitude is 6.44D-15 for    423.
 Iteration    1 A^-1*A deviation from orthogonality  is 2.67D-15 for   1167    366.
 Error on total polarization charges =  0.01150
 SCF Done:  E(UM062X) =  -575.249089307     A.U. after   21 cycles
            NFock= 21  Conv=0.54D-08     -V/T= 2.0035
 <Sx>= 0.0000 <Sy>= 0.0000 <Sz>= 1.0000 <S**2>= 2.0306 S= 1.0102
 <L.S>=  0.00000000000    
 Annihilation of the first spin contaminant:
 S**2 before annihilation     2.0306,   after     2.0005
 DoSCS=F DFT=T ScalE2(SS,OS)=  1.000000  1.000000
 ExpMin= 1.03D-01 ExpMax= 8.59D+03 ExpMxC= 1.30D+03 IAcc=3 IRadAn=         5 AccDes= 0.00D+00
 HarFok:  IExCor=  205 AccDes= 0.00D+00 IRadAn=         5 IDoV=-2 UseB2=F ITyADJ=14
 ICtDFT= 12500011 ScaDFX=  1.000000  1.000000  1.000000  1.000000
 Range of M.O.s used for correlation:    15   276
 NBasis=   276 NAE=    48 NBE=    46 NFC=    14 NFV=     0
 NROrb=    262 NOA=    34 NOB=    32 NVA=   228 NVB=   230

 **** Warning!!: The largest alpha MO coefficient is  0.28681522D+02


 **** Warning!!: The largest beta MO coefficient is  0.29942102D+02

 Ignoring spin specification with unrestricted ground state.
 Keep R1, R2, and R3 ints in memory in canonical form, NReq=2216699871.
 NEqPCM:  Using non-equilibrium solvation (IEInf=1, Eps=  78.3553, EpsInf=   1.7778)
 Inv3:  Mode=1 IEnd=     9644547.
 Iteration    1 A*A^-1 deviation from unit magnitude is 7.55D-15 for    405.
 Iteration    1 A*A^-1 deviation from orthogonality  is 1.92D-15 for   1081    549.
 Iteration    1 A^-1*A deviation from unit magnitude is 7.55D-15 for    405.
 Iteration    1 A^-1*A deviation from orthogonality  is 2.55D-15 for    794    420.
    12 initial guesses have been made.
 Convergence on wavefunction:    0.001000000000000
 Iteration     1 Dimension    12 NMult     0 NNew     12
 CISAX will form    12 AO SS matrices at one time.
 New state      2 was old state      3
 New state      3 was old state      2
 Iteration     2 Dimension    24 NMult    12 NNew     12
 New state      1 was old state      2
 New state      2 was old state      1
 Iteration     3 Dimension    27 NMult    24 NNew      3
 Iteration     4 Dimension    30 NMult    27 NNew      3
 Iteration     5 Dimension    33 NMult    30 NNew      3
 Iteration     6 Dimension    35 NMult    33 NNew      2
 ***********************************************************************
 Excited states from <AA,BB:AA,BB> singles matrix:
 ***********************************************************************
 
 ExtSpn:  IState=     1 X2= 1.000 Y2= 0.000 X2-Y2-1= 2.22D-15
          S2Grnd=  2.031 Ra=  0.001 Rb=  0.015 T=  0.004 S2Ext=  0.020 S2=  2.050
 ExtSpn:  IState=     2 X2= 1.000 Y2= 0.000 X2-Y2-1= 8.88D-16
          S2Grnd=  2.031 Ra=  0.009 Rb=  0.014 T=  0.010 S2Ext=  0.034 S2=  2.064
 ExtSpn:  IState=     3 X2= 1.000 Y2= 0.000 X2-Y2-1= 6.66D-16
          S2Grnd=  2.031 Ra=  0.010 Rb=  0.024 T=  0.014 S2Ext=  0.047 S2=  2.078
 Ground to excited state transition densities written to RWF  633
 Ground to excited state transition electric dipole moments (Au):
       state          X           Y           Z        Dip. S.      Osc.
         1         0.0000     -0.0004      0.0003      0.0000      0.0000
         2        -0.0331     -0.4507     -0.0001      0.2042      0.0067
         3         0.0250     -0.5128      0.0002      0.2636      0.0095
 Ground to excited state transition velocity dipole moments (Au):
       state          X           Y           Z        Dip. S.      Osc.
         1        -0.0000     -0.0000      0.0012      0.0000      0.0000
         2        -0.0169     -0.0421     -0.0001      0.0021      0.0279
         3        -0.0057     -0.0433     -0.0000      0.0019      0.0234
 Ground to excited state transition magnetic dipole moments (Au):
       state          X           Y           Z
         1        -0.3633     -0.0212     -0.0017
         2         0.0017     -0.0014      0.5117
         3         0.0056     -0.0005     -0.3732
 Ground to excited state transition velocity quadrupole moments (Au):
       state          XX          YY          ZZ          XY          XZ          YZ
         1        -0.0001      0.0000      0.0003     -0.0004      0.0088      0.0360
         2        -0.0956     -0.1132     -0.0040     -0.3368     -0.0018     -0.0052
         3        -0.1554      0.2191     -0.0031     -0.1912     -0.0012     -0.0047
 <0|del|b> * <b|rxdel|0> + <0|del|b> * <b|delr+rdel|0>
 Rotatory Strengths (R) in cgs (10**-40 erg-esu-cm/Gauss)
       state          XX          YY          ZZ    R(velocity)    E-M Angle
         1        -0.0132      0.0140      0.0429      0.0146       90.00
         2        -0.2104      0.0164      0.1436     -0.0168       90.00
         3        -0.0990     -0.0086      0.0899     -0.0059       90.00
 1/2[<0|r|b>*<b|rxdel|0> + (<0|rxdel|b>*<b|r|0>)*]
 Rotatory Strengths (R) in cgs (10**-40 erg-esu-cm/Gauss)
       state          XX          YY          ZZ     R(length)
         1         0.0099     -0.0060      0.0004      0.0014
         2         0.0408     -0.4498      0.0251     -0.1279
         3        -0.0986     -0.1912      0.0487     -0.0804
  1/2[<0|del|b>*<b|r|0> + (<0|r|b>*<b|del|0>)*] (Au)
       state          X           Y           Z        Dip. S.   Osc.(frdel)
         1        -0.0000      0.0000      0.0000     -0.0000     -0.0000
         2         0.0006      0.0190      0.0000     -0.0195     -0.0130
         3        -0.0001      0.0222     -0.0000     -0.0221     -0.0147

 Excitation energies and oscillator strengths:
 
 Excited state symmetry could not be determined.
 Excited State   1:  3.033-?Sym    0.8755 eV 1416.13 nm  f=0.0000  <S**2>=2.050
     44B -> 47B        0.90620
     44B -> 48B       -0.33713
     44B -> 51B        0.17209
 This state for optimization and/or second-order correction.
 Total Energy, E(CIS/TDA) =  -575.216914858    
 Copying the excited state density for this state as the 1-particle RhoCI density.
 
 Excited state symmetry could not be determined.
 Excited State   2:  3.043-?Sym    1.3390 eV  925.93 nm  f=0.0067  <S**2>=2.064
     48A -> 49A        0.28084
     45B -> 47B       -0.35311
     46B -> 47B        0.87401
 
 Excited state symmetry could not be determined.
 Excited State   3:  3.052-?Sym    1.4783 eV  838.70 nm  f=0.0095  <S**2>=2.078
     48A -> 49A        0.13689
     48A -> 50A        0.22197
     45B -> 47B        0.89449
     46B -> 47B        0.30493
 SavETr:  write IOETrn=   770 NScale= 10 NData=  16 NLR=1 NState=    3 LETran=      64.

 **********************************************************************

            Population analysis using the SCF Density.

 **********************************************************************

 Alpha  occ. eigenvalues --  -19.61348 -10.61585 -10.59078 -10.57554 -10.57288
 Alpha  occ. eigenvalues --  -10.57194 -10.57071 -10.56778 -10.56678 -10.56463
 Alpha  occ. eigenvalues --  -10.56009 -10.55940 -10.55909 -10.55356  -1.16963
 Alpha  occ. eigenvalues --   -1.01549  -0.95351  -0.94096  -0.87158  -0.85968
 Alpha  occ. eigenvalues --   -0.85232  -0.76171  -0.72667  -0.71657  -0.70266
 Alpha  occ. eigenvalues --   -0.61668  -0.60831  -0.60046  -0.59114  -0.55611
 Alpha  occ. eigenvalues --   -0.53042  -0.52309  -0.52108  -0.51095  -0.49492
 Alpha  occ. eigenvalues --   -0.48408  -0.47884  -0.47372  -0.45621  -0.43240
 Alpha  occ. eigenvalues --   -0.41442  -0.41316  -0.40492  -0.34148  -0.33949
 Alpha  occ. eigenvalues --   -0.32561  -0.31018  -0.18915
 Alpha virt. eigenvalues --   -0.00425  -0.00354   0.00652   0.08172   0.09594
 Alpha virt. eigenvalues --    0.10375   0.11930   0.12057   0.13095   0.13201
 Alpha virt. eigenvalues --    0.14959   0.16633   0.18287   0.23940   0.25265
 Alpha virt. eigenvalues --    0.25275   0.26302   0.27889   0.28691   0.30478
 Alpha virt. eigenvalues --    0.31304   0.32205   0.33189   0.34738   0.38725
 Alpha virt. eigenvalues --    0.39044   0.39408   0.41085   0.41906   0.42455
 Alpha virt. eigenvalues --    0.42489   0.42639   0.44065   0.45056   0.45866
 Alpha virt. eigenvalues --    0.46752   0.47178   0.47426   0.47721   0.47881
 Alpha virt. eigenvalues --    0.49323   0.50017   0.50090   0.50792   0.53619
 Alpha virt. eigenvalues --    0.53911   0.55188   0.55609   0.55728   0.58430
 Alpha virt. eigenvalues --    0.59033   0.62938   0.64249   0.64764   0.65039
 Alpha virt. eigenvalues --    0.65866   0.65912   0.66256   0.66692   0.66907
 Alpha virt. eigenvalues --    0.67371   0.70945   0.72306   0.74951   0.77509
 Alpha virt. eigenvalues --    0.77558   0.78096   0.80691   0.81020   0.81841
 Alpha virt. eigenvalues --    0.83773   0.85150   0.85982   0.86761   0.87951
 Alpha virt. eigenvalues --    0.89656   0.92216   0.93916   0.93989   0.95667
 Alpha virt. eigenvalues --    0.96882   0.97748   0.98039   1.00567   1.02281
 Alpha virt. eigenvalues --    1.07211   1.09010   1.09585   1.11303   1.12474
 Alpha virt. eigenvalues --    1.13959   1.14411   1.16710   1.17060   1.17750
 Alpha virt. eigenvalues --    1.21550   1.21704   1.22092   1.23827   1.26040
 Alpha virt. eigenvalues --    1.26990   1.31186   1.33956   1.34258   1.38220
 Alpha virt. eigenvalues --    1.41344   1.43653   1.46237   1.47918   1.49353
 Alpha virt. eigenvalues --    1.50124   1.50894   1.54069   1.58046   1.58304
 Alpha virt. eigenvalues --    1.58590   1.62114   1.63210   1.66864   1.69933
 Alpha virt. eigenvalues --    1.74970   1.77365   1.79315   1.80207   1.81170
 Alpha virt. eigenvalues --    1.83112   1.84393   1.84764   1.86238   1.86628
 Alpha virt. eigenvalues --    1.88320   1.89068   1.90033   1.94748   1.96280
 Alpha virt. eigenvalues --    1.97187   2.00700   2.01251   2.01894   2.02970
 Alpha virt. eigenvalues --    2.06558   2.08840   2.12330   2.16818   2.16955
 Alpha virt. eigenvalues --    2.23210   2.27769   2.31998   2.34024   2.34979
 Alpha virt. eigenvalues --    2.37204   2.37584   2.40344   2.40426   2.40881
 Alpha virt. eigenvalues --    2.44035   2.44611   2.46082   2.55135   2.59499
 Alpha virt. eigenvalues --    2.60422   2.61631   2.68063   2.71645   2.72293
 Alpha virt. eigenvalues --    2.72581   2.72743   2.77991   2.80877   2.81659
 Alpha virt. eigenvalues --    2.82968   2.86378   2.89334   2.90543   2.98145
 Alpha virt. eigenvalues --    2.98644   3.04223   3.05651   3.12375   3.12958
 Alpha virt. eigenvalues --    3.19022   3.22230   3.23483   3.27829   3.28926
 Alpha virt. eigenvalues --    3.31734   3.32106   3.33886   3.36088   3.36568
 Alpha virt. eigenvalues --    3.36846   3.37583   3.40937   3.42294   3.46080
 Alpha virt. eigenvalues --    3.49431   3.50550   3.55377   3.58574   3.61998
 Alpha virt. eigenvalues --    3.65950   3.67222   3.82481   3.84711   3.93073
 Alpha virt. eigenvalues --    4.03450   4.26055   4.27907   4.71173   4.77800
 Alpha virt. eigenvalues --    4.80523   4.98526   5.17386   5.73007  23.25175
 Alpha virt. eigenvalues --   23.60082  23.64741  23.86041  23.91372  23.93834
 Alpha virt. eigenvalues --   23.96123  24.06072  24.08960  24.10565  24.18101
 Alpha virt. eigenvalues --   24.19235  24.21648  50.09079
  Beta  occ. eigenvalues --  -19.60622 -10.61605 -10.58962 -10.57579 -10.57303
  Beta  occ. eigenvalues --  -10.57024 -10.57019 -10.56816 -10.56544 -10.56304
  Beta  occ. eigenvalues --  -10.55981 -10.55911 -10.55812 -10.55235  -1.14948
  Beta  occ. eigenvalues --   -1.01007  -0.94720  -0.93226  -0.86430  -0.85581
  Beta  occ. eigenvalues --   -0.84190  -0.75180  -0.72238  -0.71052  -0.69699
  Beta  occ. eigenvalues --   -0.61000  -0.60375  -0.59555  -0.58408  -0.55018
  Beta  occ. eigenvalues --   -0.52441  -0.51446  -0.50603  -0.49669  -0.49026
  Beta  occ. eigenvalues --   -0.47512  -0.46811  -0.45214  -0.44381  -0.41021
  Beta  occ. eigenvalues --   -0.40881  -0.40847  -0.35542  -0.32771  -0.31624
  Beta  occ. eigenvalues --   -0.31130
  Beta virt. eigenvalues --   -0.16276  -0.04945   0.00633   0.02691   0.04762
  Beta virt. eigenvalues --    0.08248   0.09645   0.10405   0.12121   0.13225
  Beta virt. eigenvalues --    0.13850   0.15008   0.15499   0.16657   0.18399
  Beta virt. eigenvalues --    0.24400   0.25626   0.26405   0.26500   0.28385
  Beta virt. eigenvalues --    0.29185   0.30808   0.31704   0.32546   0.33700
  Beta virt. eigenvalues --    0.35008   0.38939   0.39487   0.39763   0.41744
  Beta virt. eigenvalues --    0.42250   0.42722   0.43192   0.43483   0.44618
  Beta virt. eigenvalues --    0.45660   0.46263   0.47205   0.47656   0.47818
  Beta virt. eigenvalues --    0.48121   0.48275   0.49955   0.50124   0.50710
  Beta virt. eigenvalues --    0.51395   0.54113   0.54241   0.55651   0.56114
  Beta virt. eigenvalues --    0.56220   0.58646   0.59226   0.63478   0.64795
  Beta virt. eigenvalues --    0.65324   0.65483   0.66054   0.66335   0.66909
  Beta virt. eigenvalues --    0.67102   0.67405   0.67923   0.71488   0.72699
  Beta virt. eigenvalues --    0.75118   0.77467   0.78098   0.78836   0.81000
  Beta virt. eigenvalues --    0.81170   0.82446   0.84203   0.85564   0.86700
  Beta virt. eigenvalues --    0.87627   0.88559   0.89936   0.92419   0.94374
  Beta virt. eigenvalues --    0.95774   0.96479   0.97280   0.97986   0.99164
  Beta virt. eigenvalues --    1.01716   1.02522   1.08617   1.09194   1.09848
  Beta virt. eigenvalues --    1.11412   1.13746   1.14195   1.15484   1.17376
  Beta virt. eigenvalues --    1.17819   1.18013   1.21944   1.22816   1.22990
  Beta virt. eigenvalues --    1.25465   1.27094   1.28143   1.31465   1.33922
  Beta virt. eigenvalues --    1.34134   1.38715   1.41985   1.44252   1.46925
  Beta virt. eigenvalues --    1.48489   1.49839   1.51047   1.51417   1.54656
  Beta virt. eigenvalues --    1.59159   1.59305   1.59445   1.62751   1.63641
  Beta virt. eigenvalues --    1.67683   1.70897   1.75921   1.78337   1.79831
  Beta virt. eigenvalues --    1.80687   1.82396   1.83657   1.85151   1.85265
  Beta virt. eigenvalues --    1.87087   1.87422   1.89296   1.90240   1.90585
  Beta virt. eigenvalues --    1.95190   1.96906   1.98156   2.01492   2.02471
  Beta virt. eigenvalues --    2.02744   2.04195   2.07903   2.09729   2.13156
  Beta virt. eigenvalues --    2.17633   2.18258   2.23776   2.28693   2.32551
  Beta virt. eigenvalues --    2.34538   2.35915   2.38337   2.38782   2.41248
  Beta virt. eigenvalues --    2.41449   2.41746   2.44424   2.45504   2.46817
  Beta virt. eigenvalues --    2.56780   2.60594   2.62241   2.63557   2.68696
  Beta virt. eigenvalues --    2.72600   2.73200   2.73754   2.75608   2.78884
  Beta virt. eigenvalues --    2.81454   2.82441   2.85276   2.87983   2.91075
  Beta virt. eigenvalues --    2.92320   2.99386   3.01450   3.05695   3.07831
  Beta virt. eigenvalues --    3.13208   3.13357   3.19679   3.22653   3.23913
  Beta virt. eigenvalues --    3.28504   3.29333   3.32189   3.32647   3.34171
  Beta virt. eigenvalues --    3.36508   3.37501   3.38181   3.39010   3.41599
  Beta virt. eigenvalues --    3.42670   3.46752   3.50187   3.51434   3.56006
  Beta virt. eigenvalues --    3.59040   3.62740   3.66662   3.68166   3.83253
  Beta virt. eigenvalues --    3.85626   3.93939   4.04680   4.27368   4.29269
  Beta virt. eigenvalues --    4.73308   4.79528   4.81422   5.02439   5.18646
  Beta virt. eigenvalues --    5.73879  23.25246  23.60287  23.64988  23.86361
  Beta virt. eigenvalues --   23.91780  23.94054  23.96210  24.06090  24.09553
  Beta virt. eigenvalues --   24.10984  24.18631  24.19538  24.22124  50.08305
          Condensed to atoms (all electrons):
               1          2          3          4          5          6
     1  O    7.933281   0.009918  -0.159970   0.000087  -0.002043   0.019225
     2  C    0.009918   5.099096   0.382713   0.508733   0.411209  -0.094301
     3  C   -0.159970   0.382713   5.714901  -0.070946  -0.007910   0.361908
     4  C    0.000087   0.508733  -0.070946   4.901285  -0.059184  -0.053623
     5  C   -0.002043   0.411209  -0.007910  -0.059184   4.911399   0.018106
     6  C    0.019225  -0.094301   0.361908  -0.053623   0.018106   5.248665
     7  C   -0.000065  -0.045129  -0.048516   0.485660   0.012314  -0.052962
     8  C    0.646358   0.043990   0.087280   0.011111  -0.065384  -0.085272
     9  C    0.000000  -0.051804   0.012686   0.464193  -0.032464   0.000371
    10  C    0.010445  -0.009697  -0.073462   0.014913   0.454616  -0.005733
    11  C   -0.000013  -0.056215   0.018349  -0.044702   0.424684   0.000211
    12  C    0.001714  -0.049080  -0.035205  -0.035162  -0.001800   0.483854
    13  C   -0.099670  -0.085719  -0.066095  -0.003924  -0.000835   0.024318
    14  C    0.000000  -0.042189  -0.001915  -0.037544  -0.035803  -0.000127
    15  H    0.018288   0.004527  -0.058296  -0.000113  -0.000207   0.397502
    16  H   -0.000001   0.006133  -0.000048  -0.042786  -0.000404   0.005735
    17  H   -0.000000   0.005931  -0.000399  -0.040293   0.000103   0.000093
    18  H   -0.000151   0.007508  -0.001971  -0.000384  -0.043820   0.000057
    19  H   -0.000000   0.005789  -0.000304  -0.000027  -0.043881   0.000010
    20  H   -0.000020   0.000547   0.006301   0.005407   0.000041  -0.040270
    21  H    0.008751  -0.002366   0.017219   0.000009   0.007810  -0.000433
    22  H    0.000000   0.000480   0.000045   0.005170   0.004882  -0.000003
               7          8          9         10         11         12
     1  O   -0.000065   0.646358   0.000000   0.010445  -0.000013   0.001714
     2  C   -0.045129   0.043990  -0.051804  -0.009697  -0.056215  -0.049080
     3  C   -0.048516   0.087280   0.012686  -0.073462   0.018349  -0.035205
     4  C    0.485660   0.011111   0.464193   0.014913  -0.044702  -0.035162
     5  C    0.012314  -0.065384  -0.032464   0.454616   0.424684  -0.001800
     6  C   -0.052962  -0.085272   0.000371  -0.005733   0.000211   0.483854
     7  C    5.095390  -0.001699  -0.077291  -0.000351   0.000328   0.495975
     8  C   -0.001699   4.785897  -0.000130  -0.005268  -0.001619   0.011910
     9  C   -0.077291  -0.000130   5.103452  -0.000107  -0.067727   0.006754
    10  C   -0.000351  -0.005268  -0.000107   5.185553  -0.085657   0.000130
    11  C    0.000328  -0.001619  -0.067727  -0.085657   5.118561  -0.000097
    12  C    0.495975   0.011910   0.006754   0.000130  -0.000097   5.017761
    13  C    0.000151   0.392911   0.000058   0.390117   0.010235  -0.000189
    14  C    0.006668   0.000113   0.476082   0.006662   0.550046  -0.000144
    15  H    0.005651  -0.005599   0.000042  -0.000375   0.000014  -0.033329
    16  H    0.390999   0.000015  -0.001266   0.000001   0.000063  -0.036599
    17  H   -0.001103  -0.000005   0.387875   0.000029   0.005248   0.000194
    18  H   -0.000002   0.005787   0.000053   0.389302  -0.001912   0.000004
    19  H    0.000026  -0.000001   0.005087  -0.002373   0.393035  -0.000000
    20  H   -0.041086  -0.000269  -0.000387   0.000004  -0.000003   0.400958
    21  H    0.000006  -0.047234  -0.000003  -0.037549  -0.000214  -0.000013
    22  H   -0.000372   0.000001  -0.039461  -0.000340  -0.036451   0.000007
              13         14         15         16         17         18
     1  O   -0.099670   0.000000   0.018288  -0.000001  -0.000000  -0.000151
     2  C   -0.085719  -0.042189   0.004527   0.006133   0.005931   0.007508
     3  C   -0.066095  -0.001915  -0.058296  -0.000048  -0.000399  -0.001971
     4  C   -0.003924  -0.037544  -0.000113  -0.042786  -0.040293  -0.000384
     5  C   -0.000835  -0.035803  -0.000207  -0.000404   0.000103  -0.043820
     6  C    0.024318  -0.000127   0.397502   0.005735   0.000093   0.000057
     7  C    0.000151   0.006668   0.005651   0.390999  -0.001103  -0.000002
     8  C    0.392911   0.000113  -0.005599   0.000015  -0.000005   0.005787
     9  C    0.000058   0.476082   0.000042  -0.001266   0.387875   0.000053
    10  C    0.390117   0.006662  -0.000375   0.000001   0.000029   0.389302
    11  C    0.010235   0.550046   0.000014   0.000063   0.005248  -0.001912
    12  C   -0.000189  -0.000144  -0.033329  -0.036599   0.000194   0.000004
    13  C    5.343639  -0.000418   0.002382   0.000002   0.000001  -0.032348
    14  C   -0.000418   4.981125  -0.000002   0.000272  -0.035505   0.000229
    15  H    0.002382  -0.000002   0.428190  -0.000250  -0.000001   0.000005
    16  H    0.000002   0.000272  -0.000250   0.423554   0.003286  -0.000000
    17  H    0.000001  -0.035505  -0.000001   0.003286   0.411873  -0.000002
    18  H   -0.032348   0.000229   0.000005  -0.000000  -0.000002   0.426220
    19  H    0.000580  -0.033921  -0.000000  -0.000001  -0.000238   0.003178
    20  H   -0.000007   0.000008  -0.004601  -0.004969  -0.000024   0.000000
    21  H    0.375326   0.000007  -0.000073   0.000000   0.000000  -0.008037
    22  H    0.000001   0.398982   0.000000  -0.000021  -0.004707  -0.000010
              19         20         21         22
     1  O   -0.000000  -0.000020   0.008751   0.000000
     2  C    0.005789   0.000547  -0.002366   0.000480
     3  C   -0.000304   0.006301   0.017219   0.000045
     4  C   -0.000027   0.005407   0.000009   0.005170
     5  C   -0.043881   0.000041   0.007810   0.004882
     6  C    0.000010  -0.040270  -0.000433  -0.000003
     7  C    0.000026  -0.041086   0.000006  -0.000372
     8  C   -0.000001  -0.000269  -0.047234   0.000001
     9  C    0.005087  -0.000387  -0.000003  -0.039461
    10  C   -0.002373   0.000004  -0.037549  -0.000340
    11  C    0.393035  -0.000003  -0.000214  -0.036451
    12  C   -0.000000   0.400958  -0.000013   0.000007
    13  C    0.000580  -0.000007   0.375326   0.000001
    14  C   -0.033921   0.000008   0.000007   0.398982
    15  H   -0.000000  -0.004601  -0.000073   0.000000
    16  H   -0.000001  -0.004969   0.000000  -0.000021
    17  H   -0.000238  -0.000024   0.000000  -0.004707
    18  H    0.003178   0.000000  -0.008037  -0.000010
    19  H    0.415525   0.000000  -0.000029  -0.004115
    20  H    0.000000   0.427516  -0.000000  -0.000000
    21  H   -0.000029  -0.000000   0.433757  -0.000000
    22  H   -0.004115  -0.000000  -0.000000   0.417443
          Atomic-Atomic Spin Densities.
               1          2          3          4          5          6
     1  O    0.470924  -0.000432  -0.006663  -0.000009   0.000325   0.002565
     2  C   -0.000432  -0.041938  -0.011475   0.009894   0.012749  -0.004708
     3  C   -0.006663  -0.011475   0.102858   0.001694  -0.015758  -0.024199
     4  C   -0.000009   0.009894   0.001694  -0.172332   0.003638   0.001178
     5  C    0.000325   0.012749  -0.015758   0.003638   0.267380   0.000212
     6  C    0.002565  -0.004708  -0.024199   0.001178   0.000212   0.285970
     7  C   -0.000000   0.003625   0.001801  -0.003432  -0.000083  -0.021211
     8  C   -0.072268  -0.002666   0.063683  -0.000449  -0.002268  -0.010838
     9  C    0.000000  -0.002012   0.000227  -0.013318  -0.002161   0.000702
    10  C    0.000092  -0.003463  -0.004659   0.000074   0.021920   0.000753
    11  C   -0.000000  -0.000980   0.000562  -0.000041  -0.011553  -0.000129
    12  C   -0.000049   0.002064  -0.007261  -0.000342   0.000187   0.009641
    13  C   -0.012330  -0.000553   0.012209  -0.000011  -0.017991  -0.001153
    14  C   -0.000000  -0.000447   0.000186  -0.001337  -0.010952  -0.000019
    15  H   -0.001013  -0.000030   0.000380   0.000000  -0.000005   0.000167
    16  H    0.000000  -0.000017  -0.000046  -0.000070   0.000006   0.000029
    17  H    0.000000   0.000053   0.000017  -0.000530  -0.000120  -0.000002
    18  H    0.000002  -0.000131   0.000057  -0.000001  -0.000486  -0.000001
    19  H    0.000000  -0.000003   0.000013  -0.000052  -0.000898  -0.000000
    20  H    0.000001   0.000010  -0.000062  -0.000058   0.000002  -0.000695
    21  H   -0.000290   0.000113  -0.000742   0.000001  -0.000123   0.000002
    22  H   -0.000000  -0.000020   0.000001  -0.000013   0.000050  -0.000000
               7          8          9         10         11         12
     1  O   -0.000000  -0.072268   0.000000   0.000092  -0.000000  -0.000049
     2  C    0.003625  -0.002666  -0.002012  -0.003463  -0.000980   0.002064
     3  C    0.001801   0.063683   0.000227  -0.004659   0.000562  -0.007261
     4  C   -0.003432  -0.000449  -0.013318   0.000074  -0.000041  -0.000342
     5  C   -0.000083  -0.002268  -0.002161   0.021920  -0.011553   0.000187
     6  C   -0.021211  -0.010838   0.000702   0.000753  -0.000129   0.009641
     7  C    0.354878   0.000335  -0.027081  -0.000085   0.000613  -0.000788
     8  C    0.000335  -0.006741  -0.000069  -0.009766   0.000250  -0.000623
     9  C   -0.027081  -0.000069   0.564830   0.000488  -0.027330  -0.000003
    10  C   -0.000085  -0.009766   0.000488   0.098703  -0.018973   0.000004
    11  C    0.000613   0.000250  -0.027330  -0.018973   0.359446  -0.000003
    12  C   -0.000788  -0.000623  -0.000003   0.000004  -0.000003  -0.074451
    13  C    0.000014   0.047505   0.000001  -0.034313   0.000639  -0.000044
    14  C    0.000190   0.000018   0.006405  -0.000129  -0.002190  -0.000021
    15  H    0.000016  -0.000313  -0.000000   0.000020  -0.000001  -0.000687
    16  H   -0.000780   0.000000  -0.000544  -0.000000   0.000003  -0.000093
    17  H   -0.000681   0.000000  -0.001234  -0.000001   0.000103  -0.000020
    18  H    0.000001  -0.000064   0.000000   0.001058  -0.000092  -0.000000
    19  H    0.000000  -0.000001   0.000072  -0.000254  -0.000594  -0.000000
    20  H   -0.000704   0.000003  -0.000003  -0.000000  -0.000000   0.001160
    21  H   -0.000001   0.000672   0.000000  -0.000527  -0.000003   0.000002
    22  H   -0.000001  -0.000000  -0.001299   0.000004  -0.001063   0.000000
              13         14         15         16         17         18
     1  O   -0.012330  -0.000000  -0.001013   0.000000   0.000000   0.000002
     2  C   -0.000553  -0.000447  -0.000030  -0.000017   0.000053  -0.000131
     3  C    0.012209   0.000186   0.000380  -0.000046   0.000017   0.000057
     4  C   -0.000011  -0.001337   0.000000  -0.000070  -0.000530  -0.000001
     5  C   -0.017991  -0.010952  -0.000005   0.000006  -0.000120  -0.000486
     6  C   -0.001153  -0.000019   0.000167   0.000029  -0.000002  -0.000001
     7  C    0.000014   0.000190   0.000016  -0.000780  -0.000681   0.000001
     8  C    0.047505   0.000018  -0.000313   0.000000   0.000000  -0.000064
     9  C    0.000001   0.006405  -0.000000  -0.000544  -0.001234   0.000000
    10  C   -0.034313  -0.000129   0.000020  -0.000000  -0.000001   0.001058
    11  C    0.000639  -0.002190  -0.000001   0.000003   0.000103  -0.000092
    12  C   -0.000044  -0.000021  -0.000687  -0.000093  -0.000020  -0.000000
    13  C    0.311403   0.000049  -0.000093  -0.000000  -0.000000  -0.001272
    14  C    0.000049  -0.066921   0.000000  -0.000030  -0.000570  -0.000009
    15  H   -0.000093   0.000000  -0.010246   0.000011   0.000000  -0.000000
    16  H   -0.000000  -0.000030   0.000011  -0.010883  -0.000071   0.000000
    17  H   -0.000000  -0.000570   0.000000  -0.000071  -0.016600   0.000000
    18  H   -0.001272  -0.000009  -0.000000   0.000000   0.000000  -0.004168
    19  H   -0.000014  -0.000351   0.000000  -0.000000   0.000016  -0.000005
    20  H    0.000000   0.000000   0.000030  -0.000053  -0.000001   0.000000
    21  H   -0.001026  -0.000001   0.000004  -0.000000  -0.000000   0.000085
    22  H    0.000000   0.001528   0.000000  -0.000001  -0.000093   0.000000
              19         20         21         22
     1  O    0.000000   0.000001  -0.000290  -0.000000
     2  C   -0.000003   0.000010   0.000113  -0.000020
     3  C    0.000013  -0.000062  -0.000742   0.000001
     4  C   -0.000052  -0.000058   0.000001  -0.000013
     5  C   -0.000898   0.000002  -0.000123   0.000050
     6  C   -0.000000  -0.000695   0.000002  -0.000000
     7  C    0.000000  -0.000704  -0.000001  -0.000001
     8  C   -0.000001   0.000003   0.000672  -0.000000
     9  C    0.000072  -0.000003   0.000000  -0.001299
    10  C   -0.000254  -0.000000  -0.000527   0.000004
    11  C   -0.000594  -0.000000  -0.000003  -0.001063
    12  C   -0.000000   0.001160   0.000002   0.000000
    13  C   -0.000014   0.000000  -0.001026   0.000000
    14  C   -0.000351   0.000000  -0.000001   0.001528
    15  H    0.000000   0.000030   0.000004   0.000000
    16  H   -0.000000  -0.000053  -0.000000  -0.000001
    17  H    0.000016  -0.000001  -0.000000  -0.000093
    18  H   -0.000005   0.000000   0.000085   0.000000
    19  H   -0.012162  -0.000000   0.000000  -0.000009
    20  H   -0.000000   0.000943   0.000000   0.000000
    21  H    0.000000   0.000000  -0.012525   0.000000
    22  H   -0.000009   0.000000   0.000000   0.000467
 Mulliken charges and spin densities:
               1          2
     1  O   -0.386136   0.380854
     2  C   -0.050075  -0.040367
     3  C   -0.076365   0.112822
     4  C   -0.007878  -0.175515
     5  C    0.048573   0.244069
     6  C   -0.227333   0.238264
     7  C   -0.224591   0.306627
     8  C    0.227107   0.006401
     9  C   -0.186017   0.497672
    10  C   -0.230863   0.050948
    11  C   -0.226164   0.298666
    12  C   -0.227642  -0.071330
    13  C   -0.250517   0.303018
    14  C   -0.232623  -0.074600
    15  H    0.246246  -0.011758
    16  H    0.256284  -0.012540
    17  H    0.267645  -0.019731
    18  H    0.256294  -0.005026
    19  H    0.261662  -0.014242
    20  H    0.250853   0.000573
    21  H    0.253070  -0.014358
    22  H    0.258469  -0.000447
 Sum of Mulliken charges =  -0.00000   2.00000
 Mulliken charges and spin densities with hydrogens summed into heavy atoms:
               1          2
     1  O   -0.386136   0.380854
     2  C   -0.050075  -0.040367
     3  C   -0.076365   0.112822
     4  C   -0.007878  -0.175515
     5  C    0.048573   0.244069
     6  C    0.018913   0.226505
     7  C    0.031693   0.294087
     8  C    0.227107   0.006401
     9  C    0.081628   0.477941
    10  C    0.025431   0.045921
    11  C    0.035497   0.284424
    12  C    0.023210  -0.070757
    13  C    0.002553   0.288661
    14  C    0.025847  -0.075047
 Electronic spatial extent (au):  <R**2>=           8321.3692
 Charge=             -0.0000 electrons
 Dipole moment (field-independent basis, Debye):
    X=              6.8517    Y=             -1.3597    Z=              0.0296  Tot=              6.9854
 Quadrupole moment (field-independent basis, Debye-Ang):
   XX=            -26.0318   YY=            -60.5482   ZZ=            -85.5829
   XY=             -7.9693   XZ=              0.5745   YZ=             -0.1016
 Traceless Quadrupole moment (field-independent basis, Debye-Ang):
   XX=             31.3558   YY=             -3.1606   ZZ=            -28.1953
   XY=             -7.9693   XZ=              0.5745   YZ=             -0.1016
 Octapole moment (field-independent basis, Debye-Ang**2):
  XXX=           -575.6370  YYY=            196.5391  ZZZ=            -16.6397  XYY=           -244.4461
  XXY=             20.1378  XXZ=             -0.6290  XZZ=           -358.4026  YZZ=             94.3327
  YYZ=             -3.8793  XYZ=             -0.7064
 Hexadecapole moment (field-independent basis, Debye-Ang**3):
 XXXX=          -6624.8287 YYYY=          -1588.3929 ZZZZ=            -97.1602 XXXY=            595.0122
 XXXZ=            -32.0687 YYYX=            857.4153 YYYZ=             12.9239 ZZZX=            -73.3054
 ZZZY=             18.6697 XXYY=          -1489.5612 XXZZ=          -1817.4524 YYZZ=           -379.3711
 XXYZ=             -0.0855 YYXZ=            -16.1837 ZZXY=            412.2783
 N-N= 7.889285598692D+02 E-N=-2.915953882462D+03  KE= 5.732574165938D+02
 Unable to Open any file for archive entry.
 1\1\GINC-SE440\SP\UM062X TDA-FC\6-311G(d)\C13H8O1(3)\KEIGHAN\10-Jun-20
 24\0\\# M062X/6-311g* TDA=(triplet,root=1) scrf=(solvent=water) int=ul
 trafine Nosymm geom=checkpoint\\PN triplet state calculation\\0,3\O,0,
 0.9156917913,0.0330853405,0.0506481236\C,0,4.3677026866,-1.1648513876,
 0.065590431\C,0,2.9469141721,-1.2172806832,0.0596324908\C,0,5.11879898
 32,-2.3764299126,0.0689326129\C,0,5.0505427232,0.0879382543,0.06826949
 \C,0,2.3079618637,-2.4486267336,0.0570772139\C,0,4.4237416247,-3.61072
 44512,0.066136895\C,0,2.1488636536,0.0395709279,0.0562525523\C,0,6.538
 5765857,-2.3057723332,0.0749554408\C,0,4.2640593784,1.3042678368,0.064
 707202\C,0,6.4382449631,0.1082206055,0.0741244711\C,0,3.0438899074,-3.
 6449353689,0.060312603\C,0,2.912530574,1.2895174212,0.0590511924\C,0,7
 .1819055705,-1.0888564504,0.0774845746\H,0,1.2239320464,-2.4694591123,
 0.0525474376\H,0,4.9932365271,-4.5348302066,0.0686271469\H,0,7.1104883
 713,-3.2281193936,0.0775435679\H,0,4.79681342,2.2510807849,0.066692151
 6\H,0,6.957978216,1.0611931841,0.0761422677\H,0,2.5234036616,-4.596158
 827,0.0582188341\H,0,2.3354716818,2.2080917644,0.0563996058\H,0,8.2652
 415983,-1.0451412594,0.082063695\\Version=ES64L-G16RevC.01\HF=-575.249
 0893\S2=2.03059\S2-1=0.\S2A=2.000519\RMSD=5.435e-09\PG=C01 [X(C13H8O1)
 ]\\@
 The archive entry for this job was punched.


 SIC AS THE CAWSE OF EWERY THING IS, SIC WILBE THE EFFECT.
 -- PROVERBS AND REASONS OF THE YEAR 1585
           AS REPRINTED IN PAISLEY MAGAZINE 1828.
 Job cpu time:       0 days  2 hours 16 minutes 37.2 seconds.
 Elapsed time:       0 days  0 hours 36 minutes 48.3 seconds.
 File lengths (MBytes):  RWF=    499 Int=      0 D2E=      0 Chk=     22 Scr=      1
 Normal termination of Gaussian 16 at Mon Jun 10 14:45:41 2024.
