 Entering Gaussian System, Link 0=g16
 Initial command:
 /arc/software/Gaussian/g16.c01/l1.exe "/tmp/slurm/1127453/Gau-115908.inp" -scrdir="/tmp/slurm/1127453/"
 Entering Link 1 = /arc/software/Gaussian/g16.c01/l1.exe PID=    115909.
  
 Copyright (c) 1988-2019, Gaussian, Inc.  All Rights Reserved.
  
 This is part of the Gaussian(R) 16 program.  It is based on
 the Gaussian(R) 09 system (copyright 2009, Gaussian, Inc.),
 the Gaussian(R) 03 system (copyright 2003, Gaussian, Inc.),
 the Gaussian(R) 98 system (copyright 1998, Gaussian, Inc.),
 the Gaussian(R) 94 system (copyright 1995, Gaussian, Inc.),
 the Gaussian 92(TM) system (copyright 1992, Gaussian, Inc.),
 the Gaussian 90(TM) system (copyright 1990, Gaussian, Inc.),
 the Gaussian 88(TM) system (copyright 1988, Gaussian, Inc.),
 the Gaussian 86(TM) system (copyright 1986, Carnegie Mellon
 University), and the Gaussian 82(TM) system (copyright 1983,
 Carnegie Mellon University). Gaussian is a federally registered
 trademark of Gaussian, Inc.
  
 This software contains proprietary and confidential information,
 including trade secrets, belonging to Gaussian, Inc.
  
 This software is provided under written license and may be
 used, copied, transmitted, or stored only in accord with that
 written license.
  
 The following legend is applicable only to US Government
 contracts under FAR:
  
                    RESTRICTED RIGHTS LEGEND
  
 Use, reproduction and disclosure by the US Government is
 subject to restrictions as set forth in subparagraphs (a)
 and (c) of the Commercial Computer Software - Restricted
 Rights clause in FAR 52.227-19.
  
 Gaussian, Inc.
 340 Quinnipiac St., Bldg. 40, Wallingford CT 06492
  
  
 ---------------------------------------------------------------
 Warning -- This program may not be used in any manner that
 competes with the business of Gaussian, Inc. or will provide
 assistance to any competitor of Gaussian, Inc.  The licensee
 of this program is prohibited from giving any competitor of
 Gaussian, Inc. access to this program.  By using this program,
 the user acknowledges that Gaussian, Inc. is engaged in the
 business of creating and licensing software in the field of
 computational chemistry and represents and warrants to the
 licensee that it is not a competitor of Gaussian, Inc. and that
 it will not use this program in any manner prohibited above.
 ---------------------------------------------------------------
  

 Cite this work as:
 Gaussian 16, Revision C.01,
 M. J. Frisch, G. W. Trucks, H. B. Schlegel, G. E. Scuseria, 
 M. A. Robb, J. R. Cheeseman, G. Scalmani, V. Barone, 
 G. A. Petersson, H. Nakatsuji, X. Li, M. Caricato, A. V. Marenich, 
 J. Bloino, B. G. Janesko, R. Gomperts, B. Mennucci, H. P. Hratchian, 
 J. V. Ortiz, A. F. Izmaylov, J. L. Sonnenberg, D. Williams-Young, 
 F. Ding, F. Lipparini, F. Egidi, J. Goings, B. Peng, A. Petrone, 
 T. Henderson, D. Ranasinghe, V. G. Zakrzewski, J. Gao, N. Rega, 
 G. Zheng, W. Liang, M. Hada, M. Ehara, K. Toyota, R. Fukuda, 
 J. Hasegawa, M. Ishida, T. Nakajima, Y. Honda, O. Kitao, H. Nakai, 
 T. Vreven, K. Throssell, J. A. Montgomery, Jr., J. E. Peralta, 
 F. Ogliaro, M. J. Bearpark, J. J. Heyd, E. N. Brothers, K. N. Kudin, 
 V. N. Staroverov, T. A. Keith, R. Kobayashi, J. Normand, 
 K. Raghavachari, A. P. Rendell, J. C. Burant, S. S. Iyengar, 
 J. Tomasi, M. Cossi, J. M. Millam, M. Klene, C. Adamo, R. Cammi, 
 J. W. Ochterski, R. L. Martin, K. Morokuma, O. Farkas, 
 J. B. Foresman, and D. J. Fox, Gaussian, Inc., Wallingford CT, 2019.
 
 ******************************************
 Gaussian 16:  ES64L-G16RevC.01  3-Jul-2019
                 7-Jun-2024 
 ******************************************
 %chk=ground_state_opt.chk
 %mem=128GB
 %nprocshared=4
 Will use up to    4 processors via shared memory.
 -------------------------------------------------------------
 # opt B3LYP/6-311g* scrf=(solvent=water) int=ultrafine Nosymm
 -------------------------------------------------------------
 1/18=20,19=15,26=6,38=1/1,3;
 2/9=110,12=2,15=1,17=6,18=5,40=1/2;
 3/5=4,6=6,7=1,11=2,25=1,30=1,70=2201,71=1,72=1,74=-5,75=-5/1,2,3;
 4//1;
 5/5=2,38=5,53=1/2;
 6/7=2,8=2,9=2,10=2,28=1/1;
 7/30=1/1,2,3,16;
 1/18=20,19=15,26=6/3(2);
 2/9=110,15=1/2;
 99//99;
 2/9=110,15=1/2;
 3/5=4,6=6,7=1,11=2,25=1,30=1,70=2205,71=1,72=1,74=-5,75=-5/1,2,3;
 4/5=5,16=3,69=1/1;
 5/5=2,38=5,53=1/2;
 7/30=1/1,2,3,16;
 1/18=20,19=15,26=6/3(-5);
 2/9=110,15=1/2;
 6/7=2,8=2,9=2,10=2,19=2,28=1/1;
 99/9=1/99;
 ------------------------------------------
 Juglone ground state geometry optimization
 ------------------------------------------
 Symbolic Z-matrix:
 Charge =  0 Multiplicity = 1
 O                     2.84894  -0.54595  -0.0921 
 O                     1.06724  -2.45361  -0.01286 
 O                    -2.9543    1.04785   0.03083 
 C                     0.44103  -0.1855   -0.00638 
 C                    -0.61192   0.73123   0.03518 
 C                     1.76013   0.28242  -0.04124 
 C                     0.15661  -1.63247  -0.01197 
 C                    -0.34562   2.10747   0.06988 
 C                    -2.01261   0.26729   0.02365 
 C                     2.02482   1.65082  -0.02853 
 C                     0.97267   2.5639    0.03615 
 C                    -1.25146  -2.06855  -0.01777 
 C                    -2.25513  -1.18872  -0.00772 
 H                    -1.16205   2.82568   0.11874 
 H                     3.05323   2.00357  -0.06906 
 H                     1.18067   3.63111   0.05492 
 H                    -1.42702  -3.13808  -0.03559 
 H                    -3.29273  -1.50158  -0.01988 
 H                     2.53437  -1.4781   -0.06984 
 

 GradGradGradGradGradGradGradGradGradGradGradGradGradGradGradGradGradGrad
 Berny optimization.
 Initialization pass.
                           ----------------------------
                           !    Initial Parameters    !
                           ! (Angstroms and Degrees)  !
 --------------------------                            --------------------------
 ! Name  Definition              Value          Derivative Info.                !
 --------------------------------------------------------------------------------
 ! R1    R(1,6)                  1.369          estimate D2E/DX2                !
 ! R2    R(1,19)                 0.984          estimate D2E/DX2                !
 ! R3    R(2,7)                  1.2262         estimate D2E/DX2                !
 ! R4    R(3,9)                  1.2232         estimate D2E/DX2                !
 ! R5    R(4,5)                  1.3967         estimate D2E/DX2                !
 ! R6    R(4,6)                  1.4001         estimate D2E/DX2                !
 ! R7    R(4,7)                  1.4747         estimate D2E/DX2                !
 ! R8    R(5,8)                  1.4022         estimate D2E/DX2                !
 ! R9    R(5,9)                  1.4756         estimate D2E/DX2                !
 ! R10   R(6,10)                 1.3938         estimate D2E/DX2                !
 ! R11   R(7,12)                 1.4741         estimate D2E/DX2                !
 ! R12   R(8,11)                 1.3955         estimate D2E/DX2                !
 ! R13   R(8,14)                 1.0885         estimate D2E/DX2                !
 ! R14   R(9,13)                 1.4764         estimate D2E/DX2                !
 ! R15   R(10,11)                1.3946         estimate D2E/DX2                !
 ! R16   R(10,15)                1.088          estimate D2E/DX2                !
 ! R17   R(11,16)                1.0875         estimate D2E/DX2                !
 ! R18   R(12,13)                1.3347         estimate D2E/DX2                !
 ! R19   R(12,17)                1.084          estimate D2E/DX2                !
 ! R20   R(13,18)                1.0838         estimate D2E/DX2                !
 ! A1    A(6,1,19)             108.5471         estimate D2E/DX2                !
 ! A2    A(5,4,6)              119.4496         estimate D2E/DX2                !
 ! A3    A(5,4,7)              119.916          estimate D2E/DX2                !
 ! A4    A(6,4,7)              120.6343         estimate D2E/DX2                !
 ! A5    A(4,5,8)              120.1164         estimate D2E/DX2                !
 ! A6    A(4,5,9)              120.5986         estimate D2E/DX2                !
 ! A7    A(8,5,9)              119.2792         estimate D2E/DX2                !
 ! A8    A(1,6,4)              123.2309         estimate D2E/DX2                !
 ! A9    A(1,6,10)             116.3174         estimate D2E/DX2                !
 ! A10   A(4,6,10)             120.4515         estimate D2E/DX2                !
 ! A11   A(2,7,4)              120.9213         estimate D2E/DX2                !
 ! A12   A(2,7,12)             120.7499         estimate D2E/DX2                !
 ! A13   A(4,7,12)             118.3287         estimate D2E/DX2                !
 ! A14   A(5,8,11)             119.9892         estimate D2E/DX2                !
 ! A15   A(5,8,14)             120.4163         estimate D2E/DX2                !
 ! A16   A(11,8,14)            119.5939         estimate D2E/DX2                !
 ! A17   A(3,9,5)              122.0141         estimate D2E/DX2                !
 ! A18   A(3,9,13)             120.1986         estimate D2E/DX2                !
 ! A19   A(5,9,13)             117.7857         estimate D2E/DX2                !
 ! A20   A(6,10,11)            119.9957         estimate D2E/DX2                !
 ! A21   A(6,10,15)            119.8331         estimate D2E/DX2                !
 ! A22   A(11,10,15)           120.1712         estimate D2E/DX2                !
 ! A23   A(8,11,10)            119.9794         estimate D2E/DX2                !
 ! A24   A(8,11,16)            120.0838         estimate D2E/DX2                !
 ! A25   A(10,11,16)           119.936          estimate D2E/DX2                !
 ! A26   A(7,12,13)            121.5507         estimate D2E/DX2                !
 ! A27   A(7,12,17)            116.5296         estimate D2E/DX2                !
 ! A28   A(13,12,17)           121.9189         estimate D2E/DX2                !
 ! A29   A(9,13,12)            121.7833         estimate D2E/DX2                !
 ! A30   A(9,13,18)            116.243          estimate D2E/DX2                !
 ! A31   A(12,13,18)           121.9736         estimate D2E/DX2                !
 ! D1    D(19,1,6,4)            -1.7719         estimate D2E/DX2                !
 ! D2    D(19,1,6,10)          178.3871         estimate D2E/DX2                !
 ! D3    D(6,4,5,8)             -1.3266         estimate D2E/DX2                !
 ! D4    D(6,4,5,9)            177.7948         estimate D2E/DX2                !
 ! D5    D(7,4,5,8)            178.6187         estimate D2E/DX2                !
 ! D6    D(7,4,5,9)             -2.2599         estimate D2E/DX2                !
 ! D7    D(5,4,6,1)           -179.5421         estimate D2E/DX2                !
 ! D8    D(5,4,6,10)             0.2926         estimate D2E/DX2                !
 ! D9    D(7,4,6,1)              0.5131         estimate D2E/DX2                !
 ! D10   D(7,4,6,10)          -179.6523         estimate D2E/DX2                !
 ! D11   D(5,4,7,2)           -178.0761         estimate D2E/DX2                !
 ! D12   D(5,4,7,12)             1.9813         estimate D2E/DX2                !
 ! D13   D(6,4,7,2)              1.8685         estimate D2E/DX2                !
 ! D14   D(6,4,7,12)          -178.0741         estimate D2E/DX2                !
 ! D15   D(4,5,8,11)             1.2698         estimate D2E/DX2                !
 ! D16   D(4,5,8,14)          -178.9977         estimate D2E/DX2                !
 ! D17   D(9,5,8,11)          -177.8631         estimate D2E/DX2                !
 ! D18   D(9,5,8,14)             1.8693         estimate D2E/DX2                !
 ! D19   D(4,5,9,3)           -178.4305         estimate D2E/DX2                !
 ! D20   D(4,5,9,13)             1.1058         estimate D2E/DX2                !
 ! D21   D(8,5,9,3)              0.6981         estimate D2E/DX2                !
 ! D22   D(8,5,9,13)          -179.7656         estimate D2E/DX2                !
 ! D23   D(1,6,10,11)         -179.349          estimate D2E/DX2                !
 ! D24   D(1,6,10,15)            0.6445         estimate D2E/DX2                !
 ! D25   D(4,6,10,11)            0.8054         estimate D2E/DX2                !
 ! D26   D(4,6,10,15)         -179.2012         estimate D2E/DX2                !
 ! D27   D(2,7,12,13)          179.5378         estimate D2E/DX2                !
 ! D28   D(2,7,12,17)           -0.7577         estimate D2E/DX2                !
 ! D29   D(4,7,12,13)           -0.5195         estimate D2E/DX2                !
 ! D30   D(4,7,12,17)          179.185          estimate D2E/DX2                !
 ! D31   D(5,8,11,10)           -0.1676         estimate D2E/DX2                !
 ! D32   D(5,8,11,16)          179.5084         estimate D2E/DX2                !
 ! D33   D(14,8,11,10)        -179.9023         estimate D2E/DX2                !
 ! D34   D(14,8,11,16)          -0.2263         estimate D2E/DX2                !
 ! D35   D(3,9,13,12)          179.9274         estimate D2E/DX2                !
 ! D36   D(3,9,13,18)           -0.2029         estimate D2E/DX2                !
 ! D37   D(5,9,13,12)            0.3823         estimate D2E/DX2                !
 ! D38   D(5,9,13,18)         -179.748          estimate D2E/DX2                !
 ! D39   D(6,10,11,8)           -0.8658         estimate D2E/DX2                !
 ! D40   D(6,10,11,16)         179.4577         estimate D2E/DX2                !
 ! D41   D(15,10,11,8)         179.1408         estimate D2E/DX2                !
 ! D42   D(15,10,11,16)         -0.5357         estimate D2E/DX2                !
 ! D43   D(7,12,13,9)           -0.6355         estimate D2E/DX2                !
 ! D44   D(7,12,13,18)         179.5023         estimate D2E/DX2                !
 ! D45   D(17,12,13,9)         179.6761         estimate D2E/DX2                !
 ! D46   D(17,12,13,18)         -0.1862         estimate D2E/DX2                !
 --------------------------------------------------------------------------------
 Trust Radius=3.00D-01 FncErr=5.00D-06 GrdErr=5.00D-06 EigMax=2.50D+02 EigMin=1.00D-04
 Number of steps in this run=    107 maximum allowed number of steps=    114.
 GradGradGradGradGradGradGradGradGradGradGradGradGradGradGradGradGradGrad

                          Input orientation:                          
 ---------------------------------------------------------------------
 Center     Atomic      Atomic             Coordinates (Angstroms)
 Number     Number       Type             X           Y           Z
 ---------------------------------------------------------------------
      1          8           0        2.848940   -0.545950   -0.092100
      2          8           0        1.067240   -2.453610   -0.012860
      3          8           0       -2.954300    1.047850    0.030830
      4          6           0        0.441030   -0.185500   -0.006380
      5          6           0       -0.611920    0.731230    0.035180
      6          6           0        1.760130    0.282420   -0.041240
      7          6           0        0.156610   -1.632470   -0.011970
      8          6           0       -0.345620    2.107470    0.069880
      9          6           0       -2.012610    0.267290    0.023650
     10          6           0        2.024820    1.650820   -0.028530
     11          6           0        0.972670    2.563900    0.036150
     12          6           0       -1.251460   -2.068550   -0.017770
     13          6           0       -2.255130   -1.188720   -0.007720
     14          1           0       -1.162050    2.825680    0.118740
     15          1           0        3.053230    2.003570   -0.069060
     16          1           0        1.180670    3.631110    0.054920
     17          1           0       -1.427020   -3.138080   -0.035590
     18          1           0       -3.292730   -1.501580   -0.019880
     19          1           0        2.534370   -1.478100   -0.069840
 ---------------------------------------------------------------------
                    Distance matrix (angstroms):
                    1          2          3          4          5
     1  O    0.000000
     2  O    2.611494   0.000000
     3  O    6.019377   5.332440   0.000000
     4  C    2.436248   2.352978   3.612589   0.000000
     5  C    3.691198   3.600707   2.363686   1.396719   0.000000
     6  C    1.369047   2.822545   4.776707   1.400068   2.415345
     7  C    2.904408   1.226181   4.106545   1.474669   2.485948
     8  C    4.155970   4.775612   2.815942   2.425355   1.402197
     9  C    4.930459   4.109757   1.223154   2.495249   1.475570
    10  C    2.347129   4.214683   5.015848   2.425068   2.793224
    11  C    3.634282   5.018640   4.209457   2.800652   2.422727
    12  C    4.374599   2.350461   3.551616   2.531902   2.872383
    13  C    5.145076   3.555013   2.343623   2.876757   2.527486
    14  H    5.244081   5.732186   2.525979   3.413609   2.167105
    15  H    2.557795   4.879935   6.083896   3.408745   3.881113
    16  H    4.500286   6.086155   4.875632   3.888102   3.409263
    17  H    5.000616   2.586571   4.456344   3.494022   3.954865
    18  H    6.215992   4.462706   2.572295   3.958941   3.489300
    19  H    0.984049   1.762764   6.042852   2.461080   3.845947
                    6          7          8          9         10
     6  C    0.000000
     7  C    2.497786   0.000000
     8  C    2.788788   3.774399   0.000000
     9  C    3.773328   2.883725   2.483396   0.000000
    10  C    1.393822   3.777628   2.416030   4.268222   0.000000
    11  C    2.414795   4.275253   1.395476   3.766493   1.394603
    12  C    3.820639   1.474063   4.274035   2.457074   4.956596
    13  C    4.276411   2.452228   3.810134   1.476403   5.136282
    14  H    3.877229   4.650919   1.088472   2.697750   3.399724
    15  H    2.152960   4.649135   3.403275   5.355931   1.087981
    16  H    3.399815   5.362690   2.156679   4.638243   2.154322
    17  H    4.675230   2.185247   5.356897   3.455860   5.903288
    18  H    5.358592   3.451832   4.660339   2.183919   6.181750
    19  H    1.923459   2.383468   4.601106   4.871361   3.170408
                   11         12         13         14         15
    11  C    0.000000
    12  C    5.138994   0.000000
    13  C    4.950028   1.334749   0.000000
    14  H    2.152296   4.896950   4.162478   0.000000
    15  H    2.157260   5.925804   6.194608   4.298804   0.000000
    16  H    1.087453   6.197311   5.919409   2.478130   2.484097
    17  H    6.186779   1.083990   2.118147   5.971638   6.819848
    18  H    5.892784   2.118547   1.083809   4.825370   7.249807
    19  H    4.334502   3.831951   4.798636   5.676408   3.520120
                   16         17         18         19
    16  H    0.000000
    17  H    7.254666   0.000000
    18  H    6.808921   2.481784   0.000000
    19  H    5.286974   4.295267   5.827361   0.000000
 Symmetry turned off by external request.
 Stoichiometry    C10H6O3
 Framework group  C1[X(C10H6O3)]
 Deg. of freedom    51
 Full point group                 C1      NOp   1
 Rotational constants (GHZ):           1.1715252           0.9103295           0.5123879
 Standard basis: 6-311G(d) (5D, 7F)
   252 basis functions,   446 primitive gaussians,   265 cartesian basis functions
    45 alpha electrons       45 beta electrons
       nuclear repulsion energy       734.9897815635 Hartrees.
 NAtoms=   19 NActive=   19 NUniq=   19 SFac= 1.00D+00 NAtFMM=   60 NAOKFM=F Big=F
 Integral buffers will be    131072 words long.
 Raffenetti 2 integral format.
 Two-electron integral symmetry is turned off.
 ------------------------------------------------------------------------------
 Polarizable Continuum Model (PCM)
 =================================
 Model                : PCM.
 Atomic radii         : UFF (Universal Force Field).
 Polarization charges : Total charges.
 Charge compensation  : None.
 Solution method      : On-the-fly selection.
 Cavity type          : Scaled VdW (van der Waals Surface) (Alpha=1.100).
 Cavity algorithm     : GePol (No added spheres)
                        Default sphere list used, NSphG=   19.
                        Lebedev-Laikov grids with approx.  5.0 points / Ang**2.
                        Smoothing algorithm: York/Karplus (Gamma=1.0000).
                        Polarization charges: spherical gaussians, with
                                              point-specific exponents (IZeta= 3).
                        Self-potential: point-specific (ISelfS= 7).
                        Self-field    : sphere-specific E.n sum rule (ISelfD= 2).
 1st derivatives      : Analytical E(r).r(x)/FMM algorithm (CHGder, D1EAlg=3).
                        Cavity 1st derivative terms included.
 Solvent              : Water, Eps=  78.355300 Eps(inf)=   1.777849
 ------------------------------------------------------------------------------
 Spheres list:
 ISph  on   Nord     Re0    Alpha      Xe            Ye            Ze
    1   O      1    1.7500  1.100      2.848940     -0.545950     -0.092100
    2   O      2    1.7500  1.100      1.067240     -2.453610     -0.012860
    3   O      3    1.7500  1.100     -2.954300      1.047850      0.030830
    4   C      4    1.9255  1.100      0.441030     -0.185500     -0.006380
    5   C      5    1.9255  1.100     -0.611920      0.731230      0.035180
    6   C      6    1.9255  1.100      1.760130      0.282420     -0.041240
    7   C      7    1.9255  1.100      0.156610     -1.632470     -0.011970
    8   C      8    1.9255  1.100     -0.345620      2.107470      0.069880
    9   C      9    1.9255  1.100     -2.012610      0.267290      0.023650
   10   C     10    1.9255  1.100      2.024820      1.650820     -0.028530
   11   C     11    1.9255  1.100      0.972670      2.563900      0.036150
   12   C     12    1.9255  1.100     -1.251460     -2.068550     -0.017770
   13   C     13    1.9255  1.100     -2.255130     -1.188720     -0.007720
   14   H     14    1.4430  1.100     -1.162050      2.825680      0.118740
   15   H     15    1.4430  1.100      3.053230      2.003570     -0.069060
   16   H     16    1.4430  1.100      1.180670      3.631110      0.054920
   17   H     17    1.4430  1.100     -1.427020     -3.138080     -0.035590
   18   H     18    1.4430  1.100     -3.292730     -1.501580     -0.019880
   19   H     19    1.4430  1.100      2.534370     -1.478100     -0.069840
 ------------------------------------------------------------------------------
 One-electron integrals computed using PRISM.
 NBasis=   252 RedAO= T EigKep=  1.27D-04  NBF=   252
 NBsUse=   252 1.00D-06 EigRej= -1.00D+00 NBFU=   252
 ExpMin= 1.03D-01 ExpMax= 8.59D+03 ExpMxC= 1.30D+03 IAcc=3 IRadAn=         5 AccDes= 0.00D+00
 Harris functional with IExCor=  402 and IRadAn=       5 diagonalized for initial guess.
 HarFok:  IExCor=  402 AccDes= 0.00D+00 IRadAn=         5 IDoV= 1 UseB2=F ITyADJ=14
 ICtDFT=  3500011 ScaDFX=  1.000000  1.000000  1.000000  1.000000
 FoFCou: FMM=F IPFlag=           0 FMFlag=      100000 FMFlg1=           0
         NFxFlg=           0 DoJE=T BraDBF=F KetDBF=T FulRan=T
         wScrn=  0.000000 ICntrl=       500 IOpCl=  0 I1Cent=   200000004 NGrid=           0
         NMat0=    1 NMatS0=      1 NMatT0=    0 NMatD0=    1 NMtDS0=    0 NMtDT0=    0
 Symmetry not used in FoFCou.
 Keep R1 ints in memory in canonical form, NReq=517531115.
 Requested convergence on RMS density matrix=1.00D-08 within 128 cycles.
 Requested convergence on MAX density matrix=1.00D-06.
 Requested convergence on             energy=1.00D-06.
 No special actions if energy rises.
 Inv3:  Mode=1 IEnd=     8416875.
 Iteration    1 A*A^-1 deviation from unit magnitude is 4.77D-15 for    831.
 Iteration    1 A*A^-1 deviation from orthogonality  is 2.25D-15 for    966    144.
 Iteration    1 A^-1*A deviation from unit magnitude is 4.55D-15 for    831.
 Iteration    1 A^-1*A deviation from orthogonality  is 2.17D-15 for   1256    220.
 Error on total polarization charges =  0.00893
 SCF Done:  E(RB3LYP) =  -610.496177877     A.U. after   13 cycles
            NFock= 13  Conv=0.61D-08     -V/T= 2.0034

 **********************************************************************

            Population analysis using the SCF Density.

 **********************************************************************

 Alpha  occ. eigenvalues --  -19.15487 -19.14088 -19.12945 -10.28994 -10.28151
 Alpha  occ. eigenvalues --  -10.26492 -10.21254 -10.21147 -10.20883 -10.20591
 Alpha  occ. eigenvalues --  -10.20143 -10.19540 -10.19522  -1.08724  -1.06463
 Alpha  occ. eigenvalues --   -1.06129  -0.89268  -0.84510  -0.78397  -0.77299
 Alpha  occ. eigenvalues --   -0.70582  -0.65933  -0.65339  -0.60616  -0.54589
 Alpha  occ. eigenvalues --   -0.54256  -0.53555  -0.51143  -0.48349  -0.46685
 Alpha  occ. eigenvalues --   -0.46409  -0.46387  -0.43790  -0.43314  -0.42533
 Alpha  occ. eigenvalues --   -0.41330  -0.40304  -0.39341  -0.37914  -0.35465
 Alpha  occ. eigenvalues --   -0.31275  -0.29385  -0.28572  -0.27877  -0.25094
 Alpha virt. eigenvalues --   -0.12901  -0.04548  -0.03426   0.03207   0.05469
 Alpha virt. eigenvalues --    0.06383   0.07353   0.08677   0.09499   0.11188
 Alpha virt. eigenvalues --    0.12435   0.16672   0.18401   0.19407   0.21265
 Alpha virt. eigenvalues --    0.23333   0.24898   0.25130   0.28313   0.29730
 Alpha virt. eigenvalues --    0.31949   0.33131   0.34439   0.34783   0.36371
 Alpha virt. eigenvalues --    0.36833   0.38086   0.38196   0.38877   0.40846
 Alpha virt. eigenvalues --    0.41012   0.41528   0.42071   0.43328   0.43629
 Alpha virt. eigenvalues --    0.44954   0.46046   0.46704   0.49167   0.51424
 Alpha virt. eigenvalues --    0.51806   0.53352   0.53768   0.56625   0.57397
 Alpha virt. eigenvalues --    0.59626   0.60162   0.60643   0.61234   0.62433
 Alpha virt. eigenvalues --    0.63024   0.63882   0.66639   0.69271   0.70287
 Alpha virt. eigenvalues --    0.72874   0.73942   0.75027   0.76785   0.77505
 Alpha virt. eigenvalues --    0.78196   0.80201   0.83085   0.84645   0.85065
 Alpha virt. eigenvalues --    0.85685   0.87754   0.89201   0.89770   0.92595
 Alpha virt. eigenvalues --    0.92973   0.95346   0.98182   0.98345   0.99514
 Alpha virt. eigenvalues --    1.03009   1.05682   1.09569   1.10116   1.10428
 Alpha virt. eigenvalues --    1.10711   1.12315   1.13681   1.17843   1.18599
 Alpha virt. eigenvalues --    1.20110   1.20775   1.23515   1.25029   1.27956
 Alpha virt. eigenvalues --    1.35731   1.38331   1.40909   1.43932   1.46292
 Alpha virt. eigenvalues --    1.47718   1.48432   1.52272   1.54409   1.56479
 Alpha virt. eigenvalues --    1.56925   1.62692   1.63148   1.67770   1.71106
 Alpha virt. eigenvalues --    1.71617   1.72507   1.77229   1.78020   1.78245
 Alpha virt. eigenvalues --    1.80073   1.81957   1.83661   1.87177   1.88733
 Alpha virt. eigenvalues --    1.89650   1.91617   1.94276   1.95621   1.96607
 Alpha virt. eigenvalues --    1.99322   2.08704   2.10944   2.15054   2.18174
 Alpha virt. eigenvalues --    2.19717   2.25426   2.27835   2.29316   2.30080
 Alpha virt. eigenvalues --    2.32041   2.32434   2.37448   2.45401   2.45790
 Alpha virt. eigenvalues --    2.50602   2.51880   2.56961   2.62193   2.63682
 Alpha virt. eigenvalues --    2.67601   2.68592   2.73323   2.74091   2.77231
 Alpha virt. eigenvalues --    2.80428   2.82467   2.89114   2.90186   2.91702
 Alpha virt. eigenvalues --    2.94294   2.96124   3.00381   3.00909   3.04436
 Alpha virt. eigenvalues --    3.09522   3.11355   3.13512   3.15314   3.16590
 Alpha virt. eigenvalues --    3.17517   3.22072   3.25849   3.26569   3.28191
 Alpha virt. eigenvalues --    3.29667   3.30459   3.32617   3.39107   3.42078
 Alpha virt. eigenvalues --    3.44422   3.47952   3.50191   3.50758   3.55062
 Alpha virt. eigenvalues --    3.63331   3.69341   3.75088   3.81732   3.89296
 Alpha virt. eigenvalues --    4.03729   4.09611   4.23046   4.66799   4.78108
 Alpha virt. eigenvalues --    4.80158   4.84819   4.87281   5.03546   5.04513
 Alpha virt. eigenvalues --    5.11319   5.54140   5.58913   5.68685  23.23530
 Alpha virt. eigenvalues --   23.47600  23.79693  23.80644  23.83536  23.85322
 Alpha virt. eigenvalues --   23.99942  24.02331  24.10610  24.17838  49.89284
 Alpha virt. eigenvalues --   49.94582  49.96458
          Condensed to atoms (all electrons):
               1          2          3          4          5          6
     1  O    8.142757  -0.038554   0.000000  -0.070200   0.007500   0.353662
     2  O   -0.038554   7.914580   0.000000  -0.122227   0.006940   0.010471
     3  O    0.000000   0.000000   7.801208   0.008042  -0.145956   0.000072
     4  C   -0.070200  -0.122227   0.008042   6.119232   0.218666   0.110558
     5  C    0.007500   0.006940  -0.145956   0.218666   5.631340   0.021173
     6  C    0.353662   0.010471   0.000072   0.110558   0.021173   5.013580
     7  C   -0.019091   0.604248  -0.001017   0.121508   0.042944  -0.123688
     8  C   -0.000204   0.000111   0.014693  -0.078598   0.418586  -0.072648
     9  C    0.000061  -0.000638   0.697472   0.037869   0.100204   0.012585
    10  C   -0.057034   0.002246  -0.000051  -0.046334  -0.055954   0.470970
    11  C    0.003623  -0.000119   0.001769  -0.061180  -0.021280  -0.003228
    12  C    0.000279  -0.066965   0.008067  -0.045097  -0.050329   0.017750
    13  C   -0.000037   0.005744  -0.085678  -0.068570  -0.065456  -0.005229
    14  H    0.000008   0.000004   0.019985   0.007789  -0.060266  -0.001647
    15  H    0.005089   0.000085  -0.000001   0.016395  -0.001841  -0.049960
    16  H   -0.000136  -0.000002  -0.000023  -0.001875   0.009035   0.009284
    17  H    0.000057   0.009595  -0.000196   0.017068  -0.003393  -0.000167
    18  H   -0.000001  -0.000167   0.010810  -0.004061   0.017988  -0.000039
    19  H    0.254351   0.065259  -0.000001  -0.003944   0.000266  -0.052533
               7          8          9         10         11         12
     1  O   -0.019091  -0.000204   0.000061  -0.057034   0.003623   0.000279
     2  O    0.604248   0.000111  -0.000638   0.002246  -0.000119  -0.066965
     3  O   -0.001017   0.014693   0.697472  -0.000051   0.001769   0.008067
     4  C    0.121508  -0.078598   0.037869  -0.046334  -0.061180  -0.045097
     5  C    0.042944   0.418586   0.100204  -0.055954  -0.021280  -0.050329
     6  C   -0.123688  -0.072648   0.012585   0.470970  -0.003228   0.017750
     7  C    4.721091   0.012870  -0.056012   0.009893  -0.002382   0.382541
     8  C    0.012870   5.143679  -0.065204  -0.027217   0.454056  -0.005022
     9  C   -0.056012  -0.065204   4.688618  -0.002014   0.012661  -0.000930
    10  C    0.009893  -0.027217  -0.002014   5.057814   0.500773  -0.000091
    11  C   -0.002382   0.454056   0.012661   0.500773   4.976583   0.000106
    12  C    0.382541  -0.005022  -0.000930  -0.000091   0.000106   5.172673
    13  C   -0.001205   0.022270   0.355485   0.000130  -0.000254   0.446884
    14  H    0.000201   0.400918  -0.009954   0.007552  -0.040465  -0.000325
    15  H   -0.000035   0.007614  -0.000017   0.382030  -0.040364  -0.000008
    16  H   -0.000043  -0.047472  -0.000226  -0.044659   0.403519   0.000004
    17  H   -0.050884   0.000048   0.007212  -0.000028   0.000012   0.369489
    18  H    0.008924  -0.000418  -0.051810   0.000012  -0.000022  -0.031297
    19  H   -0.011909  -0.000013   0.000032   0.005359  -0.000309   0.002297
              13         14         15         16         17         18
     1  O   -0.000037   0.000008   0.005089  -0.000136   0.000057  -0.000001
     2  O    0.005744   0.000004   0.000085  -0.000002   0.009595  -0.000167
     3  O   -0.085678   0.019985  -0.000001  -0.000023  -0.000196   0.010810
     4  C   -0.068570   0.007789   0.016395  -0.001875   0.017068  -0.004061
     5  C   -0.065456  -0.060266  -0.001841   0.009035  -0.003393   0.017988
     6  C   -0.005229  -0.001647  -0.049960   0.009284  -0.000167  -0.000039
     7  C   -0.001205   0.000201  -0.000035  -0.000043  -0.050884   0.008924
     8  C    0.022270   0.400918   0.007614  -0.047472   0.000048  -0.000418
     9  C    0.355485  -0.009954  -0.000017  -0.000226   0.007212  -0.051810
    10  C    0.000130   0.007552   0.382030  -0.044659  -0.000028   0.000012
    11  C   -0.000254  -0.040465  -0.040364   0.403519   0.000012  -0.000022
    12  C    0.446884  -0.000325  -0.000008   0.000004   0.369489  -0.031297
    13  C    5.264574   0.002082   0.000007  -0.000007  -0.028370   0.369836
    14  H    0.002082   0.461011  -0.000198  -0.006346   0.000002  -0.000056
    15  H    0.000007  -0.000198   0.457676  -0.007365  -0.000001   0.000000
    16  H   -0.000007  -0.006346  -0.007365   0.455612   0.000000  -0.000001
    17  H   -0.028370   0.000002  -0.000001   0.000000   0.450501  -0.011262
    18  H    0.369836  -0.000056   0.000000  -0.000001  -0.011262   0.453130
    19  H   -0.000271  -0.000004   0.000109   0.000021  -0.000056   0.000010
              19
     1  O    0.254351
     2  O    0.065259
     3  O   -0.000001
     4  C   -0.003944
     5  C    0.000266
     6  C   -0.052533
     7  C   -0.011909
     8  C   -0.000013
     9  C    0.000032
    10  C    0.005359
    11  C   -0.000309
    12  C    0.002297
    13  C   -0.000271
    14  H   -0.000004
    15  H    0.000109
    16  H    0.000021
    17  H   -0.000056
    18  H    0.000010
    19  H    0.322929
 Mulliken charges:
               1
     1  O   -0.582131
     2  O   -0.390612
     3  O   -0.329195
     4  C   -0.155042
     5  C   -0.070168
     6  C    0.289032
     7  C    0.362046
     8  C   -0.178050
     9  C    0.274606
    10  C   -0.203400
    11  C   -0.183499
    12  C   -0.200028
    13  C   -0.211937
    14  H    0.219711
    15  H    0.230785
    16  H    0.230680
    17  H    0.240371
    18  H    0.238423
    19  H    0.418407
 Sum of Mulliken charges =  -0.00000
 Mulliken charges with hydrogens summed into heavy atoms:
               1
     1  O   -0.163723
     2  O   -0.390612
     3  O   -0.329195
     4  C   -0.155042
     5  C   -0.070168
     6  C    0.289032
     7  C    0.362046
     8  C    0.041661
     9  C    0.274606
    10  C    0.027386
    11  C    0.047180
    12  C    0.040343
    13  C    0.026486
 Electronic spatial extent (au):  <R**2>=           2052.9626
 Charge=             -0.0000 electrons
 Dipole moment (field-independent basis, Debye):
    X=             -0.2166    Y=              0.1536    Z=              0.0234  Tot=              0.2665
 Quadrupole moment (field-independent basis, Debye-Ang):
   XX=            -82.0335   YY=            -66.1662   ZZ=            -74.7659
   XY=             13.7424   XZ=              0.2294   YZ=              0.2192
 Traceless Quadrupole moment (field-independent basis, Debye-Ang):
   XX=             -7.7116   YY=              8.1557   ZZ=             -0.4441
   XY=             13.7424   XZ=              0.2294   YZ=              0.2192
 Octapole moment (field-independent basis, Debye-Ang**2):
  XXX=             10.1361  YYY=             17.5922  ZZZ=              0.3608  XYY=             -0.2085
  XXY=            -21.8461  XXZ=              0.1384  XZZ=             -1.4605  YZZ=             -7.7982
  YYZ=              0.4414  XYZ=             -0.3292
 Hexadecapole moment (field-independent basis, Debye-Ang**3):
 XXXX=          -1525.6034 YYYY=          -1084.5880 ZZZZ=            -76.8806 XXXY=             51.7269
 XXXZ=             12.5514 YYYX=             22.1245 YYYZ=             -3.7556 ZZZX=              9.1472
 ZZZY=             -7.9475 XXYY=           -392.4591 XXZZ=           -251.4388 YYZZ=           -221.2316
 XXYZ=             -3.1918 YYXZ=              2.4632 ZZXY=            -26.7803
 N-N= 7.349897815635D+02 E-N=-2.896360660950D+03  KE= 6.084339925444D+02
 D1PCM: PCM CHGder 1st derivatives, ID1Alg=3 FixD1E=F DoIter=F DoCFld=F I1PDM=0.
 Calling FoFJK, ICntrl=      2127 FMM=F ISym2X=0 I1Cent= 0 IOpClX= 0 NMat=1 NMatS=1 NMatT=0.
 -------------------------------------------------------------------
 Center     Atomic                   Forces (Hartrees/Bohr)
 Number     Number              X              Y              Z
 -------------------------------------------------------------------
      1        8          -0.012448200    0.005617772    0.000956044
      2        8           0.007076752   -0.014494181   -0.000411536
      3        8          -0.002156503    0.000408507    0.000343860
      4        6          -0.002458262   -0.012297094   -0.000467894
      5        6           0.000614888    0.021821162    0.000729441
      6        6           0.025489322   -0.011863671   -0.000614187
      7        6          -0.002135551    0.011703313   -0.000133843
      8        6          -0.004977543   -0.001281092   -0.000171341
      9        6          -0.007195402    0.001409754    0.000108909
     10        6          -0.002977080    0.014356684    0.000210160
     11        6           0.004635515   -0.005770938   -0.000432267
     12        6           0.001760095   -0.003778453   -0.000142183
     13        6          -0.002946985    0.000430821    0.000306864
     14        1           0.000991942   -0.004912543   -0.000666686
     15        1          -0.001943708   -0.003503098    0.000443243
     16        1          -0.000205413   -0.002458721    0.000005854
     17        1           0.001007936   -0.000653201    0.000010277
     18        1          -0.000602526    0.000249979    0.000133344
     19        1          -0.001529276    0.005015001   -0.000208059
 -------------------------------------------------------------------
 Cartesian Forces:  Max     0.025489322 RMS     0.006587494

 GradGradGradGradGradGradGradGradGradGradGradGradGradGradGradGradGradGrad
 Berny optimization.
 FormGI is forming the generalized inverse of G from B-inverse, IUseBI=4.
 Internal  Forces:  Max     0.017578703 RMS     0.003792789
 Search for a local minimum.
 Step number   1 out of a maximum of  107
 All quantities printed in internal units (Hartrees-Bohrs-Radians)
 Mixed Optimization -- RFO/linear search
 Second derivative matrix not updated -- first step.
 ITU=  0
     Eigenvalues ---    0.01084   0.01095   0.01105   0.01616   0.01676
     Eigenvalues ---    0.01876   0.01963   0.01993   0.02101   0.02101
     Eigenvalues ---    0.02111   0.02120   0.02154   0.02155   0.02165
     Eigenvalues ---    0.02332   0.16000   0.16000   0.16000   0.16000
     Eigenvalues ---    0.16000   0.16000   0.22096   0.22425   0.23527
     Eigenvalues ---    0.24507   0.24912   0.24992   0.24999   0.25000
     Eigenvalues ---    0.25000   0.33326   0.34131   0.34990   0.35047
     Eigenvalues ---    0.35094   0.35109   0.35174   0.35517   0.35538
     Eigenvalues ---    0.40879   0.41914   0.45224   0.45967   0.46035
     Eigenvalues ---    0.46538   0.50606   0.51160   0.56681   0.92696
     Eigenvalues ---    0.93999
 RFO step:  Lambda=-3.52097432D-03 EMin= 1.08382519D-02
 Linear search not attempted -- first point.
 Iteration  1 RMS(Cart)=  0.02232885 RMS(Int)=  0.00028921
 Iteration  2 RMS(Cart)=  0.00032040 RMS(Int)=  0.00003981
 Iteration  3 RMS(Cart)=  0.00000013 RMS(Int)=  0.00003981
 Variable       Old X    -DE/DX   Delta X   Delta X   Delta X     New X
                                 (Linear)    (Quad)   (Total)
    R1        2.58712  -0.01758   0.00000  -0.03413  -0.03413   2.55300
    R2        1.85958  -0.00427   0.00000  -0.00838  -0.00838   1.85121
    R3        2.31715   0.01496   0.00000   0.01608   0.01608   2.33323
    R4        2.31143   0.00192   0.00000   0.00204   0.00204   2.31346
    R5        2.63942   0.01389   0.00000   0.03205   0.03202   2.67143
    R6        2.64574   0.00910   0.00000   0.02145   0.02145   2.66720
    R7        2.78672   0.00256   0.00000   0.00761   0.00758   2.79430
    R8        2.64977  -0.00904   0.00000  -0.02015  -0.02017   2.62960
    R9        2.78842   0.00812   0.00000   0.02363   0.02364   2.81206
   R10        2.63394   0.00467   0.00000   0.01025   0.01027   2.64422
   R11        2.78557   0.00211   0.00000   0.00518   0.00517   2.79075
   R12        2.63707   0.00177   0.00000   0.00215   0.00215   2.63922
   R13        2.05691  -0.00401   0.00000  -0.01136  -0.01136   2.04555
   R14        2.79000   0.00312   0.00000   0.00837   0.00839   2.79839
   R15        2.63542  -0.00479   0.00000  -0.01154  -0.01152   2.62389
   R16        2.05599  -0.00299   0.00000  -0.00845  -0.00845   2.04754
   R17        2.05499  -0.00245   0.00000  -0.00691  -0.00691   2.04807
   R18        2.52231   0.00633   0.00000   0.01010   0.01011   2.53242
   R19        2.04844   0.00048   0.00000   0.00134   0.00134   2.04979
   R20        2.04810   0.00050   0.00000   0.00140   0.00140   2.04950
    A1        1.89450  -0.00566   0.00000  -0.03461  -0.03461   1.85989
    A2        2.08479  -0.00319   0.00000  -0.00808  -0.00810   2.07669
    A3        2.09293   0.00144   0.00000   0.00555   0.00548   2.09841
    A4        2.10547   0.00175   0.00000   0.00253   0.00259   2.10806
    A5        2.09643   0.00143   0.00000   0.00632   0.00626   2.10269
    A6        2.10484  -0.00151   0.00000  -0.00384  -0.00385   2.10099
    A7        2.08181   0.00008   0.00000  -0.00240  -0.00235   2.07947
    A8        2.15078  -0.00130   0.00000  -0.00714  -0.00713   2.14366
    A9        2.03012   0.00435   0.00000   0.01517   0.01517   2.04530
   A10        2.10228  -0.00305   0.00000  -0.00802  -0.00804   2.09423
   A11        2.11048   0.00794   0.00000   0.03127   0.03131   2.14179
   A12        2.10748  -0.00603   0.00000  -0.02379  -0.02376   2.08373
   A13        2.06523  -0.00191   0.00000  -0.00748  -0.00756   2.05767
   A14        2.09421  -0.00015   0.00000  -0.00437  -0.00444   2.08977
   A15        2.10166  -0.00305   0.00000  -0.01690  -0.01687   2.08479
   A16        2.08731   0.00320   0.00000   0.02129   0.02132   2.10863
   A17        2.12955   0.00234   0.00000   0.00880   0.00876   2.13831
   A18        2.09786  -0.00011   0.00000  -0.00085  -0.00089   2.09697
   A19        2.05575  -0.00223   0.00000  -0.00783  -0.00787   2.04788
   A20        2.09432   0.00079   0.00000   0.00181   0.00181   2.09613
   A21        2.09148  -0.00314   0.00000  -0.01768  -0.01768   2.07380
   A22        2.09738   0.00235   0.00000   0.01587   0.01587   2.11326
   A23        2.09404   0.00418   0.00000   0.01285   0.01282   2.10685
   A24        2.09586  -0.00182   0.00000  -0.00475  -0.00474   2.09112
   A25        2.09328  -0.00236   0.00000  -0.00807  -0.00807   2.08521
   A26        2.12146   0.00247   0.00000   0.00856   0.00852   2.12998
   A27        2.03383  -0.00236   0.00000  -0.01117  -0.01116   2.02267
   A28        2.12789  -0.00011   0.00000   0.00264   0.00265   2.13054
   A29        2.12552   0.00175   0.00000   0.00579   0.00578   2.13130
   A30        2.02882  -0.00130   0.00000  -0.00547  -0.00548   2.02335
   A31        2.12884  -0.00045   0.00000  -0.00030  -0.00031   2.12853
    D1       -0.03093   0.00027   0.00000   0.01067   0.01067  -0.02026
    D2        3.11344   0.00017   0.00000   0.00746   0.00746   3.12090
    D3       -0.02315   0.00049   0.00000   0.02132   0.02132  -0.00183
    D4        3.10310   0.00059   0.00000   0.02688   0.02687   3.12997
    D5        3.11748   0.00031   0.00000   0.01444   0.01448   3.13197
    D6       -0.03944   0.00042   0.00000   0.02000   0.02003  -0.01941
    D7       -3.13360  -0.00030   0.00000  -0.01168  -0.01157   3.13801
    D8        0.00511  -0.00019   0.00000  -0.00832  -0.00824  -0.00314
    D9        0.00895  -0.00013   0.00000  -0.00476  -0.00470   0.00426
   D10       -3.13552  -0.00001   0.00000  -0.00139  -0.00137  -3.13689
   D11       -3.10801  -0.00030   0.00000  -0.01746  -0.01741  -3.12542
   D12        0.03458  -0.00037   0.00000  -0.02076  -0.02076   0.01382
   D13        0.03261  -0.00048   0.00000  -0.02443  -0.02437   0.00824
   D14       -3.10798  -0.00055   0.00000  -0.02773  -0.02773  -3.13571
   D15        0.02216  -0.00041   0.00000  -0.01829  -0.01832   0.00384
   D16       -3.12410  -0.00033   0.00000  -0.01397  -0.01402  -3.13812
   D17       -3.10430  -0.00050   0.00000  -0.02377  -0.02379  -3.12808
   D18        0.03263  -0.00042   0.00000  -0.01944  -0.01949   0.01314
   D19       -3.11420  -0.00038   0.00000  -0.02027  -0.02026  -3.13446
   D20        0.01930  -0.00020   0.00000  -0.00470  -0.00466   0.01464
   D21        0.01218  -0.00027   0.00000  -0.01468  -0.01471  -0.00253
   D22       -3.13750  -0.00008   0.00000   0.00089   0.00089  -3.13661
   D23       -3.13023  -0.00015   0.00000  -0.00494  -0.00484  -3.13507
   D24        0.01125  -0.00016   0.00000  -0.00532  -0.00525   0.00600
   D25        0.01406  -0.00025   0.00000  -0.00805  -0.00795   0.00611
   D26       -3.12765  -0.00026   0.00000  -0.00843  -0.00836  -3.13601
   D27        3.13353  -0.00008   0.00000   0.00212   0.00219   3.13571
   D28       -0.01323   0.00005   0.00000   0.00699   0.00704  -0.00618
   D29       -0.00907   0.00000   0.00000   0.00544   0.00546  -0.00360
   D30        3.12737   0.00013   0.00000   0.01032   0.01032   3.13768
   D31       -0.00293   0.00005   0.00000   0.00207   0.00206  -0.00087
   D32        3.13301   0.00018   0.00000   0.00876   0.00882  -3.14136
   D33       -3.13989  -0.00001   0.00000  -0.00212  -0.00220   3.14110
   D34       -0.00395   0.00012   0.00000   0.00458   0.00456   0.00061
   D35        3.14033  -0.00004   0.00000   0.00417   0.00415  -3.13871
   D36       -0.00354   0.00006   0.00000   0.00810   0.00809   0.00455
   D37        0.00667  -0.00023   0.00000  -0.01115  -0.01111  -0.00444
   D38       -3.13719  -0.00013   0.00000  -0.00722  -0.00718   3.13882
   D39       -0.01511   0.00022   0.00000   0.01093   0.01099  -0.00412
   D40        3.13213   0.00009   0.00000   0.00424   0.00424   3.13637
   D41        3.12660   0.00023   0.00000   0.01132   0.01141   3.13801
   D42       -0.00935   0.00010   0.00000   0.00462   0.00466  -0.00468
   D43       -0.01109   0.00025   0.00000   0.01027   0.01032  -0.00078
   D44        3.13291   0.00015   0.00000   0.00612   0.00615   3.13905
   D45        3.13594   0.00012   0.00000   0.00517   0.00520   3.14114
   D46       -0.00325   0.00001   0.00000   0.00102   0.00103  -0.00222
         Item               Value     Threshold  Converged?
 Maximum Force            0.017579     0.000450     NO 
 RMS     Force            0.003793     0.000300     NO 
 Maximum Displacement     0.080478     0.001800     NO 
 RMS     Displacement     0.022312     0.001200     NO 
 Predicted change in Energy=-1.791449D-03
 GradGradGradGradGradGradGradGradGradGradGradGradGradGradGradGradGradGrad

                          Input orientation:                          
 ---------------------------------------------------------------------
 Center     Atomic      Atomic             Coordinates (Angstroms)
 Number     Number       Type             X           Y           Z
 ---------------------------------------------------------------------
      1          8           0        2.852123   -0.537757   -0.071297
      2          8           0        1.057041   -2.496197   -0.052924
      3          8           0       -2.970096    1.050934    0.055958
      4          6           0        0.451937   -0.190316   -0.018384
      5          6           0       -0.608750    0.743296    0.023450
      6          6           0        1.780914    0.284687   -0.035685
      7          6           0        0.166574   -1.641122   -0.033506
      8          6           0       -0.345781    2.109501    0.049387
      9          6           0       -2.021900    0.277065    0.027752
     10          6           0        2.032054    1.661074   -0.015291
     11          6           0        0.975661    2.561070    0.029302
     12          6           0       -1.247328   -2.067359   -0.021676
     13          6           0       -2.255616   -1.185058    0.006076
     14          1           0       -1.170566    2.809652    0.084602
     15          1           0        3.059385    2.004906   -0.034396
     16          1           0        1.181918    3.624861    0.049685
     17          1           0       -1.419338   -3.138222   -0.037125
     18          1           0       -3.293551   -1.499543    0.012396
     19          1           0        2.502190   -1.452693   -0.061912
 ---------------------------------------------------------------------
                    Distance matrix (angstroms):
                    1          2          3          4          5
     1  O    0.000000
     2  O    2.656717   0.000000
     3  O    6.036419   5.367664   0.000000
     4  C    2.425780   2.384204   3.640952   0.000000
     5  C    3.691573   3.643488   2.381523   1.413661   0.000000
     6  C    1.350989   2.873605   4.813276   1.411420   2.433991
     7  C    2.903621   1.234690   4.134473   1.478681   2.507952
     8  C    4.153207   4.815686   2.829777   2.435181   1.391525
     9  C    4.942655   4.144559   1.224232   2.518023   1.488080
    10  C    2.347447   4.270242   5.039727   2.434014   2.796008
    11  C    3.624080   5.058590   4.224952   2.801194   2.411368
    12  C    4.375801   2.344140   3.563384   2.531955   2.882637
    13  C    5.149173   3.563182   2.347898   2.884606   2.535946
    14  H    5.235597   5.756142   2.516390   3.412174   2.142242
    15  H    2.551363   4.926424   6.105151   3.408526   3.879461
    16  H    4.486826   6.123192   4.885117   3.884982   3.392727
    17  H    5.000896   2.558299   4.467946   3.491728   3.965716
    18  H    6.221041   4.463770   2.571274   3.967833   3.498372
    19  H    0.979617   1.782537   6.018965   2.408117   3.808884
                    6          7          8          9         10
     6  C    0.000000
     7  C    2.512935   0.000000
     8  C    2.803571   3.786364   0.000000
     9  C    3.803350   2.910776   2.483478   0.000000
    10  C    1.399259   3.792736   2.420613   4.283908   0.000000
    11  C    2.415486   4.279835   1.396613   3.768561   1.388505
    12  C    3.834392   1.476799   4.273639   2.469560   4.965440
    13  C    4.295983   2.465070   3.808341   1.480843   5.146361
    14  H    3.886019   4.648794   1.082461   2.672451   3.403819
    15  H    2.143279   4.654233   3.407802   5.367379   1.083511
    16  H    3.394531   5.363621   2.151786   4.633861   2.140891
    17  H    4.685928   2.180926   5.357108   3.468642   5.911499
    18  H    5.379218   3.463325   4.660034   2.184873   6.192926
    19  H    1.881334   2.343376   4.562077   4.844325   3.149404
                   11         12         13         14         15
    11  C    0.000000
    12  C    5.134845   0.000000
    13  C    4.947238   1.340101   0.000000
    14  H    2.161282   4.878772   4.140194   0.000000
    15  H    2.157610   5.927164   6.198931   4.307466   0.000000
    16  H    1.083794   6.189321   5.912180   2.489974   2.481170
    17  H    6.182424   1.084700   2.125107   5.954318   6.819878
    18  H    5.891947   2.123819   1.084551   4.804315   7.255560
    19  H    4.295219   3.799778   4.765812   5.628337   3.502316
                   16         17         18         19
    16  H    0.000000
    17  H    7.246610   0.000000
    18  H    6.803730   2.490060   0.000000
    19  H    5.247583   4.268489   5.796407   0.000000
 Symmetry turned off by external request.
 Stoichiometry    C10H6O3
 Framework group  C1[X(C10H6O3)]
 Deg. of freedom    51
 Full point group                 C1      NOp   1
 Rotational constants (GHZ):           1.1607862           0.9055782           0.5087216
 Standard basis: 6-311G(d) (5D, 7F)
   252 basis functions,   446 primitive gaussians,   265 cartesian basis functions
    45 alpha electrons       45 beta electrons
       nuclear repulsion energy       732.9966492994 Hartrees.
 NAtoms=   19 NActive=   19 NUniq=   19 SFac= 1.00D+00 NAtFMM=   60 NAOKFM=F Big=F
 Integral buffers will be    131072 words long.
 Raffenetti 2 integral format.
 Two-electron integral symmetry is turned off.
 ------------------------------------------------------------------------------
 Polarizable Continuum Model (PCM)
 =================================
 Model                : PCM.
 Atomic radii         : UFF (Universal Force Field).
 Polarization charges : Total charges.
 Charge compensation  : None.
 Solution method      : On-the-fly selection.
 Cavity type          : Scaled VdW (van der Waals Surface) (Alpha=1.100).
 Cavity algorithm     : GePol (No added spheres)
                        Default sphere list used, NSphG=   19.
                        Lebedev-Laikov grids with approx.  5.0 points / Ang**2.
                        Smoothing algorithm: York/Karplus (Gamma=1.0000).
                        Polarization charges: spherical gaussians, with
                                              point-specific exponents (IZeta= 3).
                        Self-potential: point-specific (ISelfS= 7).
                        Self-field    : sphere-specific E.n sum rule (ISelfD= 2).
 1st derivatives      : Analytical E(r).r(x)/FMM algorithm (CHGder, D1EAlg=3).
                        Cavity 1st derivative terms included.
 Solvent              : Water, Eps=  78.355300 Eps(inf)=   1.777849
 ------------------------------------------------------------------------------
 Spheres list:
 ISph  on   Nord     Re0    Alpha      Xe            Ye            Ze
    1   O      1    1.7500  1.100      2.852123     -0.537757     -0.071297
    2   O      2    1.7500  1.100      1.057041     -2.496197     -0.052924
    3   O      3    1.7500  1.100     -2.970096      1.050934      0.055958
    4   C      4    1.9255  1.100      0.451937     -0.190316     -0.018384
    5   C      5    1.9255  1.100     -0.608750      0.743296      0.023450
    6   C      6    1.9255  1.100      1.780914      0.284687     -0.035685
    7   C      7    1.9255  1.100      0.166574     -1.641122     -0.033506
    8   C      8    1.9255  1.100     -0.345781      2.109501      0.049387
    9   C      9    1.9255  1.100     -2.021900      0.277065      0.027752
   10   C     10    1.9255  1.100      2.032054      1.661074     -0.015291
   11   C     11    1.9255  1.100      0.975661      2.561070      0.029302
   12   C     12    1.9255  1.100     -1.247328     -2.067359     -0.021676
   13   C     13    1.9255  1.100     -2.255616     -1.185058      0.006076
   14   H     14    1.4430  1.100     -1.170566      2.809652      0.084602
   15   H     15    1.4430  1.100      3.059385      2.004906     -0.034396
   16   H     16    1.4430  1.100      1.181918      3.624861      0.049685
   17   H     17    1.4430  1.100     -1.419338     -3.138222     -0.037125
   18   H     18    1.4430  1.100     -3.293551     -1.499543      0.012396
   19   H     19    1.4430  1.100      2.502190     -1.452693     -0.061912
 ------------------------------------------------------------------------------
 One-electron integrals computed using PRISM.
 NBasis=   252 RedAO= T EigKep=  1.33D-04  NBF=   252
 NBsUse=   252 1.00D-06 EigRej= -1.00D+00 NBFU=   252
 Initial guess from the checkpoint file:  "ground_state_opt.chk"
 B after Tr=     0.001799   -0.001976   -0.003387
         Rot=    0.999998   -0.001556   -0.000714    0.000339 Ang=  -0.20 deg.
 ExpMin= 1.03D-01 ExpMax= 8.59D+03 ExpMxC= 1.30D+03 IAcc=3 IRadAn=         5 AccDes= 0.00D+00
 Harris functional with IExCor=  402 and IRadAn=       5 diagonalized for initial guess.
 HarFok:  IExCor=  402 AccDes= 0.00D+00 IRadAn=         5 IDoV= 1 UseB2=F ITyADJ=14
 ICtDFT=  3500011 ScaDFX=  1.000000  1.000000  1.000000  1.000000
 FoFCou: FMM=F IPFlag=           0 FMFlag=      100000 FMFlg1=           0
         NFxFlg=           0 DoJE=T BraDBF=F KetDBF=T FulRan=T
         wScrn=  0.000000 ICntrl=       500 IOpCl=  0 I1Cent=   200000004 NGrid=           0
         NMat0=    1 NMatS0=      1 NMatT0=    0 NMatD0=    1 NMtDS0=    0 NMtDT0=    0
 Symmetry not used in FoFCou.
 Keep R1 ints in memory in canonical form, NReq=517531115.
 Requested convergence on RMS density matrix=1.00D-08 within 128 cycles.
 Requested convergence on MAX density matrix=1.00D-06.
 Requested convergence on             energy=1.00D-06.
 No special actions if energy rises.
 Inv3:  Mode=1 IEnd=     8457123.
 Iteration    1 A*A^-1 deviation from unit magnitude is 4.44D-15 for   1676.
 Iteration    1 A*A^-1 deviation from orthogonality  is 2.59D-15 for   1662   1200.
 Iteration    1 A^-1*A deviation from unit magnitude is 4.44D-15 for   1676.
 Iteration    1 A^-1*A deviation from orthogonality  is 1.52D-15 for    922    876.
 Error on total polarization charges =  0.00896
 SCF Done:  E(RB3LYP) =  -610.497901133     A.U. after   12 cycles
            NFock= 12  Conv=0.39D-08     -V/T= 2.0035
 D1PCM: PCM CHGder 1st derivatives, ID1Alg=3 FixD1E=F DoIter=F DoCFld=F I1PDM=0.
 Calling FoFJK, ICntrl=      2127 FMM=F ISym2X=0 I1Cent= 0 IOpClX= 0 NMat=1 NMatS=1 NMatT=0.
 -------------------------------------------------------------------
 Center     Atomic                   Forces (Hartrees/Bohr)
 Number     Number              X              Y              Z
 -------------------------------------------------------------------
      1        8          -0.007857052    0.001459940    0.000496191
      2        8           0.004328395    0.000362184   -0.000170219
      3        8           0.001934426   -0.000763941   -0.000375923
      4        6          -0.001138816   -0.005899440    0.000297625
      5        6           0.000729200    0.004791924   -0.000819887
      6        6           0.006734556   -0.003560621   -0.000033342
      7        6          -0.002099963    0.006235610    0.000201747
      8        6          -0.001473614   -0.002533477    0.000013914
      9        6          -0.003128835   -0.000291927    0.001420145
     10        6          -0.003684274    0.005958218    0.000026398
     11        6           0.003842979   -0.001780201   -0.000018489
     12        6          -0.001269786    0.000933693   -0.000048621
     13        6           0.000494316   -0.000816372   -0.000496356
     14        1          -0.000485993   -0.000356787   -0.000155190
     15        1           0.000389364   -0.000662274    0.000150215
     16        1           0.000109257    0.000309596   -0.000087790
     17        1           0.000305765   -0.000008190    0.000047847
     18        1          -0.000055918   -0.000005442    0.000092521
     19        1           0.002325994   -0.003372494   -0.000540787
 -------------------------------------------------------------------
 Cartesian Forces:  Max     0.007857052 RMS     0.002508349

 GradGradGradGradGradGradGradGradGradGradGradGradGradGradGradGradGradGrad
 Berny optimization.
 Using GEDIIS/GDIIS optimizer.
 FormGI is forming the generalized inverse of G from B-inverse, IUseBI=4.
 Internal  Forces:  Max     0.007477896 RMS     0.001563481
 Search for a local minimum.
 Step number   2 out of a maximum of  107
 All quantities printed in internal units (Hartrees-Bohrs-Radians)
 Mixed Optimization -- RFO/linear search
 Update second derivatives using D2CorX and points    1    2
 DE= -1.72D-03 DEPred=-1.79D-03 R= 9.62D-01
 TightC=F SS=  1.41D+00  RLast= 1.33D-01 DXNew= 5.0454D-01 3.9803D-01
 Trust test= 9.62D-01 RLast= 1.33D-01 DXMaxT set to 3.98D-01
 ITU=  1  0
 Use linear search instead of GDIIS.
     Eigenvalues ---    0.01087   0.01100   0.01106   0.01607   0.01675
     Eigenvalues ---    0.01870   0.01965   0.01988   0.02089   0.02103
     Eigenvalues ---    0.02110   0.02123   0.02153   0.02155   0.02164
     Eigenvalues ---    0.02335   0.14820   0.16000   0.16000   0.16000
     Eigenvalues ---    0.16000   0.17432   0.21665   0.22412   0.22648
     Eigenvalues ---    0.23721   0.24588   0.24924   0.24998   0.24999
     Eigenvalues ---    0.27990   0.31298   0.34315   0.34552   0.35014
     Eigenvalues ---    0.35066   0.35114   0.35516   0.35537   0.37005
     Eigenvalues ---    0.41198   0.43196   0.44297   0.45741   0.46019
     Eigenvalues ---    0.47309   0.49903   0.53093   0.57991   0.90849
     Eigenvalues ---    0.94531
 RFO step:  Lambda=-8.60673399D-04 EMin= 1.08661523D-02
 Quartic linear search produced a step of -0.02120.
 Iteration  1 RMS(Cart)=  0.01384205 RMS(Int)=  0.00010270
 Iteration  2 RMS(Cart)=  0.00013122 RMS(Int)=  0.00002262
 Iteration  3 RMS(Cart)=  0.00000001 RMS(Int)=  0.00002262
 Variable       Old X    -DE/DX   Delta X   Delta X   Delta X     New X
                                 (Linear)    (Quad)   (Total)
    R1        2.55300  -0.00322   0.00072  -0.01519  -0.01447   2.53853
    R2        1.85121   0.00231   0.00018   0.00224   0.00241   1.85362
    R3        2.33323   0.00287  -0.00034   0.00729   0.00695   2.34018
    R4        2.31346  -0.00199  -0.00004  -0.00153  -0.00157   2.31189
    R5        2.67143   0.00025  -0.00068   0.00875   0.00806   2.67950
    R6        2.66720  -0.00125  -0.00045   0.00300   0.00255   2.66975
    R7        2.79430  -0.00748  -0.00016  -0.01913  -0.01930   2.77500
    R8        2.62960  -0.00240   0.00043  -0.01064  -0.01022   2.61938
    R9        2.81206   0.00155  -0.00050   0.01079   0.01030   2.82236
   R10        2.64422   0.00309  -0.00022   0.00932   0.00910   2.65332
   R11        2.79075   0.00041  -0.00011   0.00228   0.00216   2.79291
   R12        2.63922   0.00245  -0.00005   0.00574   0.00569   2.64491
   R13        2.04555   0.00014   0.00024  -0.00263  -0.00239   2.04316
   R14        2.79839   0.00059  -0.00018   0.00429   0.00412   2.80251
   R15        2.62389  -0.00231   0.00024  -0.00776  -0.00752   2.61638
   R16        2.04754   0.00016   0.00018  -0.00181  -0.00163   2.04591
   R17        2.04807   0.00032   0.00015  -0.00093  -0.00079   2.04729
   R18        2.53242  -0.00038  -0.00021   0.00215   0.00194   2.53437
   R19        2.04979  -0.00004  -0.00003   0.00025   0.00022   2.05000
   R20        2.04950   0.00006  -0.00003   0.00052   0.00049   2.05000
    A1        1.85989   0.00628   0.00073   0.02903   0.02976   1.88965
    A2        2.07669   0.00163   0.00017   0.00426   0.00444   2.08113
    A3        2.09841   0.00190  -0.00012   0.00816   0.00803   2.10644
    A4        2.10806  -0.00353  -0.00005  -0.01242  -0.01246   2.09560
    A5        2.10269  -0.00033  -0.00013  -0.00024  -0.00039   2.10230
    A6        2.10099  -0.00150   0.00008  -0.00651  -0.00645   2.09454
    A7        2.07947   0.00183   0.00005   0.00683   0.00687   2.08634
    A8        2.14366  -0.00230   0.00015  -0.01090  -0.01075   2.13291
    A9        2.04530   0.00389  -0.00032   0.01911   0.01879   2.06408
   A10        2.09423  -0.00159   0.00017  -0.00820  -0.00804   2.08619
   A11        2.14179  -0.00420  -0.00066  -0.00759  -0.00825   2.13354
   A12        2.08373   0.00341   0.00050   0.00749   0.00800   2.09172
   A13        2.05767   0.00080   0.00016   0.00012   0.00024   2.05791
   A14        2.08977  -0.00012   0.00009  -0.00211  -0.00203   2.08774
   A15        2.08479  -0.00054   0.00036  -0.00766  -0.00730   2.07749
   A16        2.10863   0.00067  -0.00045   0.00977   0.00932   2.11795
   A17        2.13831  -0.00053  -0.00019  -0.00017  -0.00044   2.13787
   A18        2.09697   0.00092   0.00002   0.00292   0.00285   2.09983
   A19        2.04788  -0.00039   0.00017  -0.00259  -0.00250   2.04537
   A20        2.09613   0.00010  -0.00004   0.00137   0.00132   2.09745
   A21        2.07380  -0.00081   0.00037  -0.00975  -0.00937   2.06443
   A22        2.11326   0.00071  -0.00034   0.00838   0.00805   2.12131
   A23        2.10685   0.00032  -0.00027   0.00497   0.00469   2.11155
   A24        2.09112  -0.00011   0.00010  -0.00175  -0.00165   2.08947
   A25        2.08521  -0.00021   0.00017  -0.00322  -0.00305   2.08216
   A26        2.12998  -0.00034  -0.00018   0.00066   0.00047   2.13045
   A27        2.02267  -0.00014   0.00024  -0.00406  -0.00382   2.01885
   A28        2.13054   0.00048  -0.00006   0.00340   0.00335   2.13388
   A29        2.13130  -0.00046  -0.00012   0.00043   0.00031   2.13161
   A30        2.02335   0.00022   0.00012  -0.00095  -0.00084   2.02251
   A31        2.12853   0.00024   0.00001   0.00053   0.00054   2.12907
    D1       -0.02026   0.00036  -0.00023   0.01893   0.01869  -0.00157
    D2        3.12090   0.00045  -0.00016   0.02210   0.02196  -3.14032
    D3       -0.00183   0.00006  -0.00045   0.00780   0.00735   0.00552
    D4        3.12997   0.00021  -0.00057   0.01721   0.01662  -3.13660
    D5        3.13197   0.00007  -0.00031   0.00830   0.00803   3.14000
    D6       -0.01941   0.00022  -0.00042   0.01772   0.01730  -0.00212
    D7        3.13801   0.00014   0.00025   0.00318   0.00340   3.14142
    D8       -0.00314   0.00005   0.00017  -0.00008   0.00009  -0.00305
    D9        0.00426   0.00010   0.00010   0.00258   0.00264   0.00689
   D10       -3.13689   0.00001   0.00003  -0.00068  -0.00068  -3.13757
   D11       -3.12542  -0.00011   0.00037  -0.01272  -0.01235  -3.13777
   D12        0.01382  -0.00004   0.00044  -0.00586  -0.00543   0.00839
   D13        0.00824  -0.00008   0.00052  -0.01213  -0.01159  -0.00335
   D14       -3.13571  -0.00001   0.00059  -0.00527  -0.00467  -3.14038
   D15        0.00384  -0.00009   0.00039  -0.00877  -0.00839  -0.00454
   D16       -3.13812  -0.00007   0.00030  -0.00654  -0.00624   3.13882
   D17       -3.12808  -0.00023   0.00050  -0.01800  -0.01753   3.13757
   D18        0.01314  -0.00021   0.00041  -0.01577  -0.01538  -0.00225
   D19       -3.13446   0.00006   0.00043   0.00358   0.00403  -3.13043
   D20        0.01464  -0.00030   0.00010  -0.02012  -0.01996  -0.00532
   D21       -0.00253   0.00020   0.00031   0.01284   0.01317   0.01064
   D22       -3.13661  -0.00016  -0.00002  -0.01087  -0.01082   3.13575
   D23       -3.13507  -0.00019   0.00010  -0.00970  -0.00962   3.13850
   D24        0.00600  -0.00015   0.00011  -0.00819  -0.00810  -0.00210
   D25        0.00611  -0.00011   0.00017  -0.00663  -0.00645  -0.00034
   D26       -3.13601  -0.00007   0.00018  -0.00511  -0.00492  -3.14093
   D27        3.13571   0.00001  -0.00005   0.00307   0.00303   3.13874
   D28       -0.00618   0.00005  -0.00015   0.00565   0.00551  -0.00067
   D29       -0.00360  -0.00004  -0.00012  -0.00354  -0.00369  -0.00730
   D30        3.13768  -0.00001  -0.00022  -0.00095  -0.00121   3.13648
   D31       -0.00087   0.00004  -0.00004   0.00199   0.00196   0.00109
   D32       -3.14136   0.00000  -0.00019   0.00250   0.00233  -3.13903
   D33        3.14110   0.00002   0.00005  -0.00027  -0.00024   3.14087
   D34        0.00061  -0.00002  -0.00010   0.00024   0.00014   0.00075
   D35       -3.13871  -0.00017  -0.00009  -0.01228  -0.01234   3.13213
   D36        0.00455  -0.00023  -0.00017  -0.01498  -0.01515  -0.01060
   D37       -0.00444   0.00018   0.00024   0.01082   0.01109   0.00665
   D38        3.13882   0.00012   0.00015   0.00812   0.00828  -3.13609
   D39       -0.00412   0.00006  -0.00023   0.00570   0.00549   0.00136
   D40        3.13637   0.00009  -0.00009   0.00519   0.00511   3.14148
   D41        3.13801   0.00003  -0.00024   0.00416   0.00392  -3.14126
   D42       -0.00468   0.00006  -0.00010   0.00365   0.00355  -0.00114
   D43       -0.00078  -0.00002  -0.00022   0.00071   0.00048  -0.00030
   D44        3.13905   0.00004  -0.00013   0.00357   0.00345  -3.14068
   D45        3.14114  -0.00006  -0.00011  -0.00204  -0.00217   3.13897
   D46       -0.00222   0.00001  -0.00002   0.00082   0.00081  -0.00141
         Item               Value     Threshold  Converged?
 Maximum Force            0.007478     0.000450     NO 
 RMS     Force            0.001563     0.000300     NO 
 Maximum Displacement     0.044054     0.001800     NO 
 RMS     Displacement     0.013793     0.001200     NO 
 Predicted change in Energy=-4.344187D-04
 GradGradGradGradGradGradGradGradGradGradGradGradGradGradGradGradGradGrad

                          Input orientation:                          
 ---------------------------------------------------------------------
 Center     Atomic      Atomic             Coordinates (Angstroms)
 Number     Number       Type             X           Y           Z
 ---------------------------------------------------------------------
      1          8           0        2.831935   -0.555947   -0.064064
      2          8           0        1.077051   -2.473008   -0.063898
      3          8           0       -2.980498    1.049562    0.061538
      4          6           0        0.447807   -0.185612   -0.016972
      5          6           0       -0.613844    0.753526    0.020944
      6          6           0        1.781409    0.280528   -0.028765
      7          6           0        0.172339   -1.627898   -0.034857
      8          6           0       -0.348152    2.113815    0.039591
      9          6           0       -2.030042    0.279566    0.040391
     10          6           0        2.031891    1.661902   -0.006532
     11          6           0        0.978466    2.559750    0.026302
     12          6           0       -1.240176   -2.062612   -0.023061
     13          6           0       -2.254628   -1.186068    0.011383
     14          1           0       -1.175251    2.809660    0.065880
     15          1           0        3.061389    1.996810   -0.016735
     16          1           0        1.188007    3.622534    0.043256
     17          1           0       -1.401981   -3.135126   -0.041921
     18          1           0       -3.290962   -1.506596    0.020844
     19          1           0        2.492108   -1.476005   -0.076912
 ---------------------------------------------------------------------
                    Distance matrix (angstroms):
                    1          2          3          4          5
     1  O    0.000000
     2  O    2.598988   0.000000
     3  O    6.031403   5.374751   0.000000
     4  C    2.413179   2.372832   3.644873   0.000000
     5  C    3.687186   3.643742   2.385443   1.417929   0.000000
     6  C    1.343332   2.842413   4.824452   1.412770   2.442015
     7  C    2.867644   1.238370   4.137447   1.468466   2.508462
     8  C    4.153472   4.804254   2.839430   2.433950   1.386118
     9  C    4.934350   4.152297   1.223400   2.521789   1.493530
    10  C    2.358439   4.244113   5.050113   2.433668   2.797466
    11  C    3.626442   5.034531   4.237371   2.796512   2.407888
    12  C    4.342097   2.353644   3.566722   2.524372   2.885284
    13  C    5.125999   3.572390   2.351052   2.881817   2.540529
    14  H    5.234667   5.744240   2.521286   3.407761   2.131873
    15  H    2.563486   4.890715   6.116192   3.404963   3.880014
    16  H    4.491517   6.097494   4.898670   3.879884   3.387975
    17  H    4.957691   2.566025   4.473705   3.481662   3.968215
    18  H    6.196838   4.474447   2.575264   3.965453   3.503585
    19  H    0.980895   1.731060   6.028854   2.418238   3.824569
                    6          7          8          9         10
     6  C    0.000000
     7  C    2.496244   0.000000
     8  C    2.810809   3.778474   0.000000
     9  C    3.812079   2.914543   2.488618   0.000000
    10  C    1.404077   3.779090   2.423006   4.290962   0.000000
    11  C    2.417148   4.264971   1.399625   3.774991   1.384526
    12  C    3.823652   1.477942   4.271085   2.472592   4.957691
    13  C    4.294428   2.467289   3.811124   1.483025   5.146406
    14  H    3.891954   4.638757   1.081195   2.670710   3.407103
    15  H    2.141055   4.635239   3.412013   5.373533   1.082650
    16  H    3.395044   5.348338   2.153146   4.640182   2.135111
    17  H    4.669137   2.179511   5.354305   3.472947   5.899509
    18  H    5.378217   3.465871   4.665603   2.186475   6.194586
    19  H    1.895473   2.325117   4.579024   4.852384   3.172257
                   11         12         13         14         15
    11  C    0.000000
    12  C    5.127478   0.000000
    13  C    4.948158   1.341129   0.000000
    14  H    2.168529   4.873516   4.139307   0.000000
    15  H    2.158082   5.914593   6.196090   4.314703   0.000000
    16  H    1.083377   6.182343   5.914001   2.499253   2.481156
    17  H    6.172746   1.084815   2.128069   5.950085   6.801402
    18  H    5.896033   2.125277   1.084811   4.807112   7.254489
    19  H    4.311506   3.778486   4.756402   5.642414   3.519680
                   16         17         18         19
    16  H    0.000000
    17  H    7.237491   0.000000
    18  H    6.809526   2.494855   0.000000
    19  H    5.264050   4.232946   5.783977   0.000000
 Symmetry turned off by external request.
 Stoichiometry    C10H6O3
 Framework group  C1[X(C10H6O3)]
 Deg. of freedom    51
 Full point group                 C1      NOp   1
 Rotational constants (GHZ):           1.1652274           0.9059964           0.5096958
 Standard basis: 6-311G(d) (5D, 7F)
   252 basis functions,   446 primitive gaussians,   265 cartesian basis functions
    45 alpha electrons       45 beta electrons
       nuclear repulsion energy       733.5972192486 Hartrees.
 NAtoms=   19 NActive=   19 NUniq=   19 SFac= 1.00D+00 NAtFMM=   60 NAOKFM=F Big=F
 Integral buffers will be    131072 words long.
 Raffenetti 2 integral format.
 Two-electron integral symmetry is turned off.
 ------------------------------------------------------------------------------
 Polarizable Continuum Model (PCM)
 =================================
 Model                : PCM.
 Atomic radii         : UFF (Universal Force Field).
 Polarization charges : Total charges.
 Charge compensation  : None.
 Solution method      : On-the-fly selection.
 Cavity type          : Scaled VdW (van der Waals Surface) (Alpha=1.100).
 Cavity algorithm     : GePol (No added spheres)
                        Default sphere list used, NSphG=   19.
                        Lebedev-Laikov grids with approx.  5.0 points / Ang**2.
                        Smoothing algorithm: York/Karplus (Gamma=1.0000).
                        Polarization charges: spherical gaussians, with
                                              point-specific exponents (IZeta= 3).
                        Self-potential: point-specific (ISelfS= 7).
                        Self-field    : sphere-specific E.n sum rule (ISelfD= 2).
 1st derivatives      : Analytical E(r).r(x)/FMM algorithm (CHGder, D1EAlg=3).
                        Cavity 1st derivative terms included.
 Solvent              : Water, Eps=  78.355300 Eps(inf)=   1.777849
 ------------------------------------------------------------------------------
 Spheres list:
 ISph  on   Nord     Re0    Alpha      Xe            Ye            Ze
    1   O      1    1.7500  1.100      2.831935     -0.555947     -0.064064
    2   O      2    1.7500  1.100      1.077051     -2.473008     -0.063898
    3   O      3    1.7500  1.100     -2.980498      1.049562      0.061538
    4   C      4    1.9255  1.100      0.447807     -0.185612     -0.016972
    5   C      5    1.9255  1.100     -0.613844      0.753526      0.020944
    6   C      6    1.9255  1.100      1.781409      0.280528     -0.028765
    7   C      7    1.9255  1.100      0.172339     -1.627898     -0.034857
    8   C      8    1.9255  1.100     -0.348152      2.113815      0.039591
    9   C      9    1.9255  1.100     -2.030042      0.279566      0.040391
   10   C     10    1.9255  1.100      2.031891      1.661902     -0.006532
   11   C     11    1.9255  1.100      0.978466      2.559750      0.026302
   12   C     12    1.9255  1.100     -1.240176     -2.062612     -0.023061
   13   C     13    1.9255  1.100     -2.254628     -1.186068      0.011383
   14   H     14    1.4430  1.100     -1.175251      2.809660      0.065880
   15   H     15    1.4430  1.100      3.061389      1.996810     -0.016735
   16   H     16    1.4430  1.100      1.188007      3.622534      0.043256
   17   H     17    1.4430  1.100     -1.401981     -3.135126     -0.041921
   18   H     18    1.4430  1.100     -3.290962     -1.506596      0.020844
   19   H     19    1.4430  1.100      2.492108     -1.476005     -0.076912
 ------------------------------------------------------------------------------
 One-electron integrals computed using PRISM.
 NBasis=   252 RedAO= T EigKep=  1.35D-04  NBF=   252
 NBsUse=   252 1.00D-06 EigRej= -1.00D+00 NBFU=   252
 Initial guess from the checkpoint file:  "ground_state_opt.chk"
 B after Tr=    -0.001819    0.004085    0.002042
         Rot=    1.000000   -0.000306   -0.000127   -0.000214 Ang=  -0.05 deg.
 ExpMin= 1.03D-01 ExpMax= 8.59D+03 ExpMxC= 1.30D+03 IAcc=3 IRadAn=         5 AccDes= 0.00D+00
 Harris functional with IExCor=  402 and IRadAn=       5 diagonalized for initial guess.
 HarFok:  IExCor=  402 AccDes= 0.00D+00 IRadAn=         5 IDoV= 1 UseB2=F ITyADJ=14
 ICtDFT=  3500011 ScaDFX=  1.000000  1.000000  1.000000  1.000000
 FoFCou: FMM=F IPFlag=           0 FMFlag=      100000 FMFlg1=           0
         NFxFlg=           0 DoJE=T BraDBF=F KetDBF=T FulRan=T
         wScrn=  0.000000 ICntrl=       500 IOpCl=  0 I1Cent=   200000004 NGrid=           0
         NMat0=    1 NMatS0=      1 NMatT0=    0 NMatD0=    1 NMtDS0=    0 NMtDT0=    0
 Symmetry not used in FoFCou.
 Keep R1 ints in memory in canonical form, NReq=517531115.
 Requested convergence on RMS density matrix=1.00D-08 within 128 cycles.
 Requested convergence on MAX density matrix=1.00D-06.
 Requested convergence on             energy=1.00D-06.
 No special actions if energy rises.
 Inv3:  Mode=1 IEnd=     8457123.
 Iteration    1 A*A^-1 deviation from unit magnitude is 5.00D-15 for   1679.
 Iteration    1 A*A^-1 deviation from orthogonality  is 2.32D-15 for   1674    911.
 Iteration    1 A^-1*A deviation from unit magnitude is 5.00D-15 for   1679.
 Iteration    1 A^-1*A deviation from orthogonality  is 1.70D-15 for   1652    944.
 Error on total polarization charges =  0.00898
 SCF Done:  E(RB3LYP) =  -610.498195885     A.U. after   11 cycles
            NFock= 11  Conv=0.51D-08     -V/T= 2.0035
 D1PCM: PCM CHGder 1st derivatives, ID1Alg=3 FixD1E=F DoIter=F DoCFld=F I1PDM=0.
 Calling FoFJK, ICntrl=      2127 FMM=F ISym2X=0 I1Cent= 0 IOpClX= 0 NMat=1 NMatS=1 NMatT=0.
 -------------------------------------------------------------------
 Center     Atomic                   Forces (Hartrees/Bohr)
 Number     Number              X              Y              Z
 -------------------------------------------------------------------
      1        8           0.001268360    0.005098764    0.000118336
      2        8          -0.000879084   -0.001470509    0.000060262
      3        8           0.001619946   -0.000688611    0.000754577
      4        6          -0.001084121   -0.000806404    0.000800858
      5        6           0.000171839   -0.002004521    0.000302969
      6        6           0.000187869   -0.002870675   -0.000484472
      7        6          -0.001604934    0.003043463   -0.000544071
      8        6          -0.000159328   -0.001323978    0.000128636
      9        6          -0.000191633   -0.000166568   -0.002198465
     10        6          -0.000694646    0.000018759   -0.000023657
     11        6           0.001454509    0.000098535    0.000017041
     12        6          -0.000292310    0.000278901    0.000374081
     13        6           0.001293810   -0.000367893    0.000693589
     14        1          -0.000424879    0.001233243    0.000082283
     15        1           0.000731571    0.000598399    0.000011683
     16        1           0.000043404    0.000691267   -0.000050599
     17        1          -0.000314434    0.000093237   -0.000132732
     18        1           0.000157818   -0.000057729   -0.000040139
[...]
 ! D31   D(5,8,11,10)            0.001          -DE/DX =    0.0                 !
 ! D32   D(5,8,11,16)          180.0008         -DE/DX =    0.0                 !
 ! D33   D(14,8,11,10)        -179.9993         -DE/DX =    0.0                 !
 ! D34   D(14,8,11,16)           0.0005         -DE/DX =    0.0                 !
 ! D35   D(3,9,13,12)          179.9836         -DE/DX =    0.0                 !
 ! D36   D(3,9,13,18)           -0.0195         -DE/DX =    0.0                 !
 ! D37   D(5,9,13,12)           -0.0051         -DE/DX =    0.0                 !
 ! D38   D(5,9,13,18)          179.9919         -DE/DX =    0.0                 !
 ! D39   D(6,10,11,8)            0.0045         -DE/DX =    0.0                 !
 ! D40   D(6,10,11,16)        -179.9953         -DE/DX =    0.0                 !
 ! D41   D(15,10,11,8)        -179.9988         -DE/DX =    0.0                 !
 ! D42   D(15,10,11,16)          0.0014         -DE/DX =    0.0                 !
 ! D43   D(7,12,13,9)           -0.0095         -DE/DX =    0.0                 !
 ! D44   D(7,12,13,18)         179.9937         -DE/DX =    0.0                 !
 ! D45   D(17,12,13,9)        -180.0017         -DE/DX =    0.0                 !
 ! D46   D(17,12,13,18)          0.0015         -DE/DX =    0.0                 !
 --------------------------------------------------------------------------------
 GradGradGradGradGradGradGradGradGradGradGradGradGradGradGradGradGradGrad

                          Input orientation:                          
 ---------------------------------------------------------------------
 Center     Atomic      Atomic             Coordinates (Angstroms)
 Number     Number       Type             X           Y           Z
 ---------------------------------------------------------------------
      1          8           0        2.836991   -0.547317   -0.061914
      2          8           0        1.069306   -2.477287   -0.068300
      3          8           0       -2.974094    1.049885    0.063968
      4          6           0        0.448040   -0.188944   -0.015467
      5          6           0       -0.612179    0.749338    0.019594
      6          6           0        1.781310    0.279422   -0.028877
      7          6           0        0.167917   -1.627581   -0.037692
      8          6           0       -0.347828    2.110455    0.040474
      9          6           0       -2.027310    0.276968    0.034237
     10          6           0        2.031080    1.662089   -0.007238
     11          6           0        0.978965    2.559837    0.026854
     12          6           0       -1.243273   -2.063296   -0.022110
     13          6           0       -2.255583   -1.186676    0.010932
     14          1           0       -1.173469    2.810414    0.067132
     15          1           0        3.061311    1.998876   -0.018021
     16          1           0        1.186106    3.624053    0.043186
     17          1           0       -1.406798   -3.135419   -0.039215
     18          1           0       -3.292194   -1.505644    0.022297
     19          1           0        2.498572   -1.470391   -0.073429
 ---------------------------------------------------------------------
                    Distance matrix (angstroms):
                    1          2          3          4          5
     1  O    0.000000
     2  O    2.617162   0.000000
     3  O    6.027902   5.367264   0.000000
     4  C    2.416128   2.371768   3.640331   0.000000
     5  C    3.685746   3.639537   2.381374   1.416215   0.000000
     6  C    1.341287   2.847446   4.818309   1.413207   2.439663
     7  C    2.879499   1.239129   4.129333   1.465824   2.502313
     8  C    4.149374   4.802862   2.832426   2.433880   1.386708
     9  C    4.934583   4.145536   1.222573   2.519305   1.491960
    10  C    2.352436   4.250079   5.042978   2.435653   2.796542
    11  C    3.621401   5.038833   4.231785   2.799904   2.410331
    12  C    4.352968   2.349797   3.563011   2.524634   2.882867
    13  C    5.133069   3.567470   2.349740   2.881969   2.539489
    14  H    5.232093   5.745274   2.518278   3.410610   2.136666
    15  H    2.556432   4.899658   6.110108   3.408188   3.880372
    16  H    4.487403   6.103476   4.892242   3.884214   3.390925
    17  H    4.970768   2.562240   4.470328   3.481768   3.965629
    18  H    6.204223   4.469338   2.575588   3.965410   3.502489
    19  H    0.983223   1.748333   6.026670   2.418709   3.822646
                    6          7          8          9         10
     6  C    0.000000
     7  C    2.497954   0.000000
     8  C    2.809043   3.774257   0.000000
     9  C    3.809143   2.907146   2.486438   0.000000
    10  C    1.405213   3.780771   2.421262   4.288450   0.000000
    11  C    2.418089   4.265727   1.400895   3.774815   1.383495
    12  C    3.825764   1.477006   4.269185   2.468749   4.959848
    13  C    4.295059   2.463760   3.809394   1.481522   5.146967
    14  H    3.891768   4.637468   1.082745   2.673663   3.404896
    15  H    2.143606   4.639322   3.411466   5.372314   1.083937
    16  H    3.397943   5.350038   2.154979   4.639946   2.136779
    17  H    4.671753   2.180207   5.352286   3.469123   5.902212
    18  H    5.378616   3.462778   4.663239   2.185813   6.194566
    19  H    1.891638   2.336224   4.575744   4.852676   3.167864
                   11         12         13         14         15
    11  C    0.000000
    12  C    5.129726   0.000000
    13  C    4.949638   1.339525   0.000000
    14  H    2.167345   4.875027   4.141360   0.000000
    15  H    2.157048   5.918674   6.198221   4.312680   0.000000
    16  H    1.084311   6.184826   5.915182   2.496032   2.482204
    17  H    6.175125   1.084657   2.126159   5.951360   6.806279
    18  H    5.896689   2.123917   1.084634   4.808260   7.256053
    19  H    4.308364   3.788875   4.763361   5.641714   3.515048
                   16         17         18         19
    16  H    0.000000
    17  H    7.240193   0.000000
    18  H    6.809507   2.492924   0.000000
    19  H    5.262084   4.245633   5.791664   0.000000
 Symmetry turned off by external request.
 Stoichiometry    C10H6O3
 Framework group  C1[X(C10H6O3)]
 Deg. of freedom    51
 Full point group                 C1      NOp   1
 Rotational constants (GHZ):           1.1656122           0.9064648           0.5099166

 **********************************************************************

            Population analysis using the SCF Density.

 **********************************************************************

 Alpha  occ. eigenvalues --  -19.16029 -19.14015 -19.13078 -10.28956 -10.28332
 Alpha  occ. eigenvalues --  -10.26826 -10.21296 -10.21181 -10.21011 -10.20659
 Alpha  occ. eigenvalues --  -10.20193 -10.19519 -10.19429  -1.09221  -1.06537
 Alpha  occ. eigenvalues --   -1.06331  -0.89011  -0.84304  -0.78246  -0.77333
 Alpha  occ. eigenvalues --   -0.70548  -0.66156  -0.65159  -0.60787  -0.54639
 Alpha  occ. eigenvalues --   -0.54294  -0.53733  -0.51016  -0.48412  -0.46738
 Alpha  occ. eigenvalues --   -0.46403  -0.46251  -0.43743  -0.43249  -0.42643
 Alpha  occ. eigenvalues --   -0.41419  -0.40703  -0.39423  -0.37888  -0.35788
 Alpha  occ. eigenvalues --   -0.31139  -0.29422  -0.28479  -0.27903  -0.25093
 Alpha virt. eigenvalues --   -0.12937  -0.04547  -0.03467   0.03171   0.05581
 Alpha virt. eigenvalues --    0.06416   0.07278   0.08895   0.09594   0.11202
 Alpha virt. eigenvalues --    0.12468   0.16856   0.18157   0.19467   0.20887
 Alpha virt. eigenvalues --    0.23610   0.24820   0.24905   0.28357   0.29523
 Alpha virt. eigenvalues --    0.31966   0.32774   0.34457   0.34828   0.36193
 Alpha virt. eigenvalues --    0.36690   0.37825   0.38159   0.39042   0.40478
 Alpha virt. eigenvalues --    0.40801   0.41385   0.42196   0.43327   0.43623
 Alpha virt. eigenvalues --    0.44981   0.46320   0.46753   0.48941   0.51416
 Alpha virt. eigenvalues --    0.51807   0.53320   0.53534   0.56237   0.57296
 Alpha virt. eigenvalues --    0.59420   0.60292   0.60538   0.61181   0.62411
 Alpha virt. eigenvalues --    0.62887   0.63410   0.66538   0.69163   0.70191
 Alpha virt. eigenvalues --    0.72911   0.73799   0.74943   0.76643   0.77627
 Alpha virt. eigenvalues --    0.78026   0.80095   0.83164   0.84358   0.85326
 Alpha virt. eigenvalues --    0.85641   0.87573   0.88970   0.89675   0.92708
 Alpha virt. eigenvalues --    0.93299   0.95636   0.98194   0.98309   0.99273
 Alpha virt. eigenvalues --    1.02686   1.05340   1.09685   1.09731   1.10449
 Alpha virt. eigenvalues --    1.10617   1.12140   1.14109   1.17640   1.18562
 Alpha virt. eigenvalues --    1.19635   1.20520   1.23173   1.24797   1.27401
 Alpha virt. eigenvalues --    1.35789   1.38272   1.40667   1.43781   1.46326
 Alpha virt. eigenvalues --    1.47374   1.48064   1.52296   1.54521   1.56523
 Alpha virt. eigenvalues --    1.56727   1.61821   1.62602   1.67466   1.70859
 Alpha virt. eigenvalues --    1.71414   1.72462   1.76702   1.77641   1.78130
 Alpha virt. eigenvalues --    1.79572   1.82117   1.83615   1.86648   1.87889
 Alpha virt. eigenvalues --    1.89250   1.91023   1.94487   1.95542   1.96971
 Alpha virt. eigenvalues --    1.98837   2.08870   2.09540   2.15021   2.17453
 Alpha virt. eigenvalues --    2.18925   2.25358   2.27398   2.28845   2.30296
 Alpha virt. eigenvalues --    2.31580   2.32145   2.37319   2.44811   2.45623
 Alpha virt. eigenvalues --    2.50167   2.51673   2.56883   2.61738   2.63521
 Alpha virt. eigenvalues --    2.67557   2.68512   2.72761   2.73842   2.77053
 Alpha virt. eigenvalues --    2.80371   2.82299   2.88745   2.89946   2.91341
 Alpha virt. eigenvalues --    2.95536   2.95867   2.99872   3.03021   3.04006
 Alpha virt. eigenvalues --    3.08738   3.10528   3.14373   3.15627   3.16066
 Alpha virt. eigenvalues --    3.17986   3.22168   3.26192   3.26767   3.27205
 Alpha virt. eigenvalues --    3.29458   3.30211   3.32487   3.40174   3.41163
 Alpha virt. eigenvalues --    3.43580   3.46783   3.49944   3.50082   3.53902
 Alpha virt. eigenvalues --    3.62722   3.68258   3.73671   3.82267   3.89187
 Alpha virt. eigenvalues --    4.04149   4.09903   4.23012   4.66056   4.77326
 Alpha virt. eigenvalues --    4.80233   4.84560   4.87073   5.03178   5.04428
 Alpha virt. eigenvalues --    5.11005   5.56466   5.58891   5.68129  23.24317
 Alpha virt. eigenvalues --   23.47310  23.78306  23.79561  23.82503  23.84382
 Alpha virt. eigenvalues --   23.97204  24.01962  24.10927  24.15875  49.89559
 Alpha virt. eigenvalues --   49.94157  49.96036
          Condensed to atoms (all electrons):
               1          2          3          4          5          6
     1  O    8.116595  -0.040028   0.000000  -0.066909   0.007546   0.356401
     2  O   -0.040028   7.930247   0.000000  -0.119160   0.006428   0.010278
     3  O    0.000000   0.000000   7.798825   0.007622  -0.140671   0.000059
     4  C   -0.066909  -0.119160   0.007622   6.082970   0.232273   0.146020
     5  C    0.007546   0.006428  -0.140671   0.232273   5.600003   0.017236
     6  C    0.356401   0.010278   0.000059   0.146020   0.017236   4.954645
     7  C   -0.018649   0.593019  -0.000976   0.124052   0.040172  -0.114461
     8  C   -0.000228   0.000104   0.014276  -0.075874   0.417184  -0.069060
     9  C    0.000060  -0.000590   0.692908   0.031068   0.120693   0.010896
    10  C   -0.057178   0.001868  -0.000041  -0.051799  -0.053340   0.473729
    11  C    0.003567  -0.000103   0.001593  -0.060084  -0.021186  -0.005396
    12  C    0.000336  -0.067648   0.007854  -0.043130  -0.046452   0.016797
    13  C   -0.000036   0.005874  -0.084830  -0.065412  -0.068658  -0.004892
    14  H    0.000007   0.000004   0.021169   0.007645  -0.063875  -0.001491
    15  H    0.005487   0.000076  -0.000001   0.016242  -0.001856  -0.050860
    16  H   -0.000136  -0.000002  -0.000022  -0.001785   0.009127   0.009169
    17  H    0.000066   0.010120  -0.000186   0.017169  -0.003201  -0.000200
    18  H   -0.000001  -0.000170   0.010728  -0.003895   0.017212  -0.000028
    19  H    0.251973   0.072047  -0.000001  -0.005933   0.000232  -0.053694
               7          8          9         10         11         12
     1  O   -0.018649  -0.000228   0.000060  -0.057178   0.003567   0.000336
     2  O    0.593019   0.000104  -0.000590   0.001868  -0.000103  -0.067648
     3  O   -0.000976   0.014276   0.692908  -0.000041   0.001593   0.007854
     4  C    0.124052  -0.075874   0.031068  -0.051799  -0.060084  -0.043130
     5  C    0.040172   0.417184   0.120693  -0.053340  -0.021186  -0.046452
     6  C   -0.114461  -0.069060   0.010896   0.473729  -0.005396   0.016797
     7  C    4.738511   0.013001  -0.052189   0.010020  -0.002449   0.380324
     8  C    0.013001   5.139679  -0.063012  -0.028360   0.448962  -0.005112
     9  C   -0.052189  -0.063012   4.675145  -0.001783   0.011951  -0.002077
    10  C    0.010020  -0.028360  -0.001783   5.049998   0.513919  -0.000168
    11  C   -0.002449   0.448962   0.011951   0.513919   4.969103   0.000142
    12  C    0.380324  -0.005112  -0.002077  -0.000168   0.000142   5.169286
    13  C   -0.002521   0.022300   0.355319   0.000166  -0.000312   0.446481
    14  H    0.000201   0.401562  -0.009983   0.007143  -0.038446  -0.000359
    15  H   -0.000077   0.007536  -0.000013   0.381589  -0.039312  -0.000008
    16  H   -0.000044  -0.047612  -0.000241  -0.044575   0.403430   0.000004
    17  H   -0.051715   0.000047   0.006909  -0.000024   0.000011   0.369272
    18  H    0.008749  -0.000432  -0.051146   0.000010  -0.000020  -0.030444
    19  H   -0.012807  -0.000010   0.000026   0.005348  -0.000300   0.002722
              13         14         15         16         17         18
     1  O   -0.000036   0.000007   0.005487  -0.000136   0.000066  -0.000001
     2  O    0.005874   0.000004   0.000076  -0.000002   0.010120  -0.000170
     3  O   -0.084830   0.021169  -0.000001  -0.000022  -0.000186   0.010728
     4  C   -0.065412   0.007645   0.016242  -0.001785   0.017169  -0.003895
     5  C   -0.068658  -0.063875  -0.001856   0.009127  -0.003201   0.017212
     6  C   -0.004892  -0.001491  -0.050860   0.009169  -0.000200  -0.000028
     7  C   -0.002521   0.000201  -0.000077  -0.000044  -0.051715   0.008749
     8  C    0.022300   0.401562   0.007536  -0.047612   0.000047  -0.000432
     9  C    0.355319  -0.009983  -0.000013  -0.000241   0.006909  -0.051146
    10  C    0.000166   0.007143   0.381589  -0.044575  -0.000024   0.000010
    11  C   -0.000312  -0.038446  -0.039312   0.403430   0.000011  -0.000020
    12  C    0.446481  -0.000359  -0.000008   0.000004   0.369272  -0.030444
    13  C    5.268214   0.002305   0.000006  -0.000008  -0.027971   0.368674
    14  H    0.002305   0.458601  -0.000183  -0.005957   0.000003  -0.000069
    15  H    0.000006  -0.000183   0.457569  -0.007739  -0.000001   0.000000
    16  H   -0.000008  -0.005957  -0.007739   0.455039   0.000000  -0.000001
    17  H   -0.027971   0.000003  -0.000001   0.000000   0.450892  -0.011007
    18  H    0.368674  -0.000069   0.000000  -0.000001  -0.011007   0.453752
    19  H   -0.000320  -0.000004   0.000071   0.000021  -0.000086   0.000012
              19
     1  O    0.251973
     2  O    0.072047
     3  O   -0.000001
     4  C   -0.005933
     5  C    0.000232
     6  C   -0.053694
     7  C   -0.012807
     8  C   -0.000010
     9  C    0.000026
    10  C    0.005348
    11  C   -0.000300
    12  C    0.002722
    13  C   -0.000320
    14  H   -0.000004
    15  H    0.000071
    16  H    0.000021
    17  H   -0.000086
    18  H    0.000012
    19  H    0.323722
 Mulliken charges:
               1
     1  O   -0.558873
     2  O   -0.402364
     3  O   -0.328306
     4  C   -0.171080
     5  C   -0.068867
     6  C    0.304853
     7  C    0.347838
     8  C   -0.174951
     9  C    0.276057
    10  C   -0.206522
    11  C   -0.185074
    12  C   -0.197821
    13  C   -0.214380
    14  H    0.221726
    15  H    0.231472
    16  H    0.231332
    17  H    0.239901
    18  H    0.238076
    19  H    0.416982
 Sum of Mulliken charges =  -0.00000
 Mulliken charges with hydrogens summed into heavy atoms:
               1
     1  O   -0.141891
     2  O   -0.402364
     3  O   -0.328306
     4  C   -0.171080
     5  C   -0.068867
     6  C    0.304853
     7  C    0.347838
     8  C    0.046775
     9  C    0.276057
    10  C    0.024950
    11  C    0.046259
    12  C    0.042081
    13  C    0.023696
 Electronic spatial extent (au):  <R**2>=           2060.9927
 Charge=             -0.0000 electrons
 Dipole moment (field-independent basis, Debye):
    X=             -0.0023    Y=              0.3848    Z=              0.0081  Tot=              0.3849
 Quadrupole moment (field-independent basis, Debye-Ang):
   XX=            -81.6147   YY=            -66.9139   ZZ=            -74.8465
   XY=             13.7720   XZ=              0.3666   YZ=             -0.0823
 Traceless Quadrupole moment (field-independent basis, Debye-Ang):
   XX=             -7.1564   YY=              7.5445   ZZ=             -0.3881
   XY=             13.7720   XZ=              0.3666   YZ=             -0.0823
 Octapole moment (field-independent basis, Debye-Ang**2):
  XXX=             12.8536  YYY=             19.1211  ZZZ=              0.6532  XYY=             -0.9723
  XXY=            -21.1244  XXZ=             -0.2656  XZZ=             -1.2429  YZZ=             -7.6543
  YYZ=              0.9624  XYZ=              0.1653
 Hexadecapole moment (field-independent basis, Debye-Ang**3):
 XXXX=          -1528.3970 YYYY=          -1096.7262 ZZZZ=            -76.9344 XXXY=             54.6345
 XXXZ=             13.7515 YYYX=             24.3814 YYYZ=             -8.4916 ZZZX=              9.8142
 ZZZY=             -9.5452 XXYY=           -397.2508 XXZZ=           -252.0810 YYZZ=           -222.1982
 XXYZ=             -4.3801 YYXZ=              4.3360 ZZXY=            -26.3372
 N-N= 7.337389576101D+02 E-N=-2.893744982328D+03  KE= 6.083678522884D+02
 Unable to Open any file for archive entry.
 1\1\GINC-SE055\FOpt\RB3LYP\6-311G(d)\C10H6O3\KEIGHAN\07-Jun-2024\0\\# 
 opt B3LYP/6-311g* scrf=(solvent=water) int=ultrafine Nosymm\\Juglone g
 round state geometry optimization\\0,1\O,2.8369909295,-0.5473166628,-0
 .0619138007\O,1.069306274,-2.4772874492,-0.0683000897\O,-2.9740940552,
 1.0498849975,0.0639681536\C,0.4480399275,-0.188943533,-0.0154669873\C,
 -0.6121786618,0.7493375862,0.0195940401\C,1.7813097442,0.2794215049,-0
 .0288769434\C,0.1679166603,-1.6275810721,-0.0376920781\C,-0.347827802,
 2.1104553637,0.0404743888\C,-2.0273096601,0.2769677707,0.0342365659\C,
 2.0310795756,1.6620888689,-0.00723832\C,0.9789645683,2.5598365051,0.02
 68537203\C,-1.2432726458,-2.0632957234,-0.0221104161\C,-2.2555831845,-
 1.1866763884,0.0109320688\H,-1.1734693712,2.8104140358,0.067131977\H,3
 .0613109183,1.9988763927,-0.0180209848\H,1.1861057274,3.6240526376,0.0
 431856147\H,-1.4067975313,-3.1354192318,-0.0392146106\H,-3.2921935891,
 -1.5056441324,0.0222970124\H,2.4985721757,-1.4703914701,-0.073429311\\
 Version=ES64L-G16RevC.01\HF=-610.4982967\RMSD=6.527e-09\RMSF=2.422e-05
 \Dipole=-0.00091,0.1513866,0.0031927\Quadrupole=-5.3205764,5.6091235,-
 0.288547,10.239118,0.2725902,-0.0612138\PG=C01 [X(C10H6O3)]\\@
 The archive entry for this job was punched.


 THOSE WHO ASPIRE NOT TO GUESS AND DIVINE,
 BUT TO DISCOVER AND KNOW, WHO PROPOSE NOT TO DEVISE 
 MIMIC AND FABULOUS WORLDS OF THEIR OWN, BUT TO 
 EXAMINE AND DISSECT THE NATURE OF THIS VERY WORLD 
 ITSELF, MUST GO TO THE FACTS THEMSELVES FOR EVERYTHING.

                               -- FRANCIS BACON, 1620
 Job cpu time:       0 days  1 hours  8 minutes 48.9 seconds.
 Elapsed time:       0 days  0 hours 18 minutes 37.4 seconds.
 File lengths (MBytes):  RWF=     82 Int=      0 D2E=      0 Chk=     18 Scr=      1
 Normal termination of Gaussian 16 at Fri Jun  7 15:59:12 2024.
