 Entering Gaussian System, Link 0=g16
 Initial command:
 /arc/software/Gaussian/g16.c01/l1.exe "/tmp/slurm/1127446/Gau-264393.inp" -scrdir="/tmp/slurm/1127446/"
 Entering Link 1 = /arc/software/Gaussian/g16.c01/l1.exe PID=    264394.
  
 Copyright (c) 1988-2019, Gaussian, Inc.  All Rights Reserved.
  
 This is part of the Gaussian(R) 16 program.  It is based on
 the Gaussian(R) 09 system (copyright 2009, Gaussian, Inc.),
 the Gaussian(R) 03 system (copyright 2003, Gaussian, Inc.),
 the Gaussian(R) 98 system (copyright 1998, Gaussian, Inc.),
 the Gaussian(R) 94 system (copyright 1995, Gaussian, Inc.),
 the Gaussian 92(TM) system (copyright 1992, Gaussian, Inc.),
 the Gaussian 90(TM) system (copyright 1990, Gaussian, Inc.),
 the Gaussian 88(TM) system (copyright 1988, Gaussian, Inc.),
 the Gaussian 86(TM) system (copyright 1986, Carnegie Mellon
 University), and the Gaussian 82(TM) system (copyright 1983,
 Carnegie Mellon University). Gaussian is a federally registered
 trademark of Gaussian, Inc.
  
 This software contains proprietary and confidential information,
 including trade secrets, belonging to Gaussian, Inc.
  
 This software is provided under written license and may be
 used, copied, transmitted, or stored only in accord with that
 written license.
  
 The following legend is applicable only to US Government
 contracts under FAR:
  
                    RESTRICTED RIGHTS LEGEND
  
 Use, reproduction and disclosure by the US Government is
 subject to restrictions as set forth in subparagraphs (a)
 and (c) of the Commercial Computer Software - Restricted
 Rights clause in FAR 52.227-19.
  
 Gaussian, Inc.
 340 Quinnipiac St., Bldg. 40, Wallingford CT 06492
  
  
 ---------------------------------------------------------------
 Warning -- This program may not be used in any manner that
 competes with the business of Gaussian, Inc. or will provide
 assistance to any competitor of Gaussian, Inc.  The licensee
 of this program is prohibited from giving any competitor of
 Gaussian, Inc. access to this program.  By using this program,
 the user acknowledges that Gaussian, Inc. is engaged in the
 business of creating and licensing software in the field of
 computational chemistry and represents and warrants to the
 licensee that it is not a competitor of Gaussian, Inc. and that
 it will not use this program in any manner prohibited above.
 ---------------------------------------------------------------
  

 Cite this work as:
 Gaussian 16, Revision C.01,
 M. J. Frisch, G. W. Trucks, H. B. Schlegel, G. E. Scuseria, 
 M. A. Robb, J. R. Cheeseman, G. Scalmani, V. Barone, 
 G. A. Petersson, H. Nakatsuji, X. Li, M. Caricato, A. V. Marenich, 
 J. Bloino, B. G. Janesko, R. Gomperts, B. Mennucci, H. P. Hratchian, 
 J. V. Ortiz, A. F. Izmaylov, J. L. Sonnenberg, D. Williams-Young, 
 F. Ding, F. Lipparini, F. Egidi, J. Goings, B. Peng, A. Petrone, 
 T. Henderson, D. Ranasinghe, V. G. Zakrzewski, J. Gao, N. Rega, 
 G. Zheng, W. Liang, M. Hada, M. Ehara, K. Toyota, R. Fukuda, 
 J. Hasegawa, M. Ishida, T. Nakajima, Y. Honda, O. Kitao, H. Nakai, 
 T. Vreven, K. Throssell, J. A. Montgomery, Jr., J. E. Peralta, 
 F. Ogliaro, M. J. Bearpark, J. J. Heyd, E. N. Brothers, K. N. Kudin, 
 V. N. Staroverov, T. A. Keith, R. Kobayashi, J. Normand, 
 K. Raghavachari, A. P. Rendell, J. C. Burant, S. S. Iyengar, 
 J. Tomasi, M. Cossi, J. M. Millam, M. Klene, C. Adamo, R. Cammi, 
 J. W. Ochterski, R. L. Martin, K. Morokuma, O. Farkas, 
 J. B. Foresman, and D. J. Fox, Gaussian, Inc., Wallingford CT, 2019.
 
 ******************************************
 Gaussian 16:  ES64L-G16RevC.01  3-Jul-2019
                 7-Jun-2024 
 ******************************************
 %chk=ground_state_opt.chk
 %mem=128GB
 %nprocshared=4
 Will use up to    4 processors via shared memory.
 -------------------------------------------------------------
 # opt B3LYP/6-311g* scrf=(solvent=water) int=ultrafine Nosymm
 -------------------------------------------------------------
 1/18=20,19=15,26=6,38=1/1,3;
 2/9=110,12=2,15=1,17=6,18=5,40=1/2;
 3/5=4,6=6,7=1,11=2,25=1,30=1,70=2201,71=1,72=1,74=-5,75=-5/1,2,3;
 4//1;
 5/5=2,38=5,53=1/2;
 6/7=2,8=2,9=2,10=2,28=1/1;
 7/30=1/1,2,3,16;
 1/18=20,19=15,26=6/3(2);
 2/9=110,15=1/2;
 99//99;
 2/9=110,15=1/2;
 3/5=4,6=6,7=1,11=2,25=1,30=1,70=2205,71=1,72=1,74=-5,75=-5/1,2,3;
 4/5=5,16=3,69=1/1;
 5/5=2,38=5,53=1/2;
 7/30=1/1,2,3,16;
 1/18=20,19=15,26=6/3(-5);
 2/9=110,15=1/2;
 6/7=2,8=2,9=2,10=2,19=2,28=1/1;
 99/9=1/99;
 -------------------------------------------------
 2-nitroanisole ground state geometry optimization
 -------------------------------------------------
 Symbolic Z-matrix:
 Charge =  0 Multiplicity = 1
 O                     1.05176  -0.27203   0.11542 
 O                     2.96228  -1.92219  -1.38097 
 O                     1.57982  -3.63604  -1.31674 
 N                     1.83624  -2.43324  -1.46613 
 C                     0.36492  -0.48821  -1.04704 
 C                     0.73373  -1.57213  -1.85259 
 C                    -0.69358   0.31693  -1.48337 
 C                     0.04225  -1.89352  -3.03018 
 C                    -1.3894    0.00874  -2.65889 
 C                    -1.02945  -1.09838  -3.42547 
 C                     0.36702   0.46944   1.12171 
 H                    -1.00341   1.19848  -0.93027 
 H                     0.32998  -2.75471  -3.62931 
 H                    -2.21972   0.6386   -2.97238 
 H                    -1.58346  -1.33663  -4.33093 
 H                     0.94522   0.39559   2.04797 
 H                     0.30372   1.52859   0.85334 
 H                    -0.62723   0.05154   1.31396 
 

 GradGradGradGradGradGradGradGradGradGradGradGradGradGradGradGradGradGrad
 Berny optimization.
 Initialization pass.
                           ----------------------------
                           !    Initial Parameters    !
                           ! (Angstroms and Degrees)  !
 --------------------------                            --------------------------
 ! Name  Definition              Value          Derivative Info.                !
 --------------------------------------------------------------------------------
 ! R1    R(1,5)                  1.3674         estimate D2E/DX2                !
 ! R2    R(1,11)                 1.4252         estimate D2E/DX2                !
 ! R3    R(2,4)                  1.2395         estimate D2E/DX2                !
 ! R4    R(3,4)                  1.2389         estimate D2E/DX2                !
 ! R5    R(4,6)                  1.4513         estimate D2E/DX2                !
 ! R6    R(5,6)                  1.3999         estimate D2E/DX2                !
 ! R7    R(5,7)                  1.3997         estimate D2E/DX2                !
 ! R8    R(6,8)                  1.4029         estimate D2E/DX2                !
 ! R9    R(7,9)                  1.4004         estimate D2E/DX2                !
 ! R10   R(7,12)                 1.0858         estimate D2E/DX2                !
 ! R11   R(8,10)                 1.3918         estimate D2E/DX2                !
 ! R12   R(8,13)                 1.0878         estimate D2E/DX2                !
 ! R13   R(9,10)                 1.3939         estimate D2E/DX2                !
 ! R14   R(9,14)                 1.0883         estimate D2E/DX2                !
 ! R15   R(10,15)                1.0879         estimate D2E/DX2                !
 ! R16   R(11,16)                1.0944         estimate D2E/DX2                !
 ! R17   R(11,17)                1.0945         estimate D2E/DX2                !
 ! R18   R(11,18)                1.0955         estimate D2E/DX2                !
 ! A1    A(5,1,11)             116.1778         estimate D2E/DX2                !
 ! A2    A(2,4,3)              125.4535         estimate D2E/DX2                !
 ! A3    A(2,4,6)              117.631          estimate D2E/DX2                !
 ! A4    A(3,4,6)              116.803          estimate D2E/DX2                !
 ! A5    A(1,5,6)              118.6368         estimate D2E/DX2                !
 ! A6    A(1,5,7)              123.6374         estimate D2E/DX2                !
 ! A7    A(6,5,7)              117.7257         estimate D2E/DX2                !
 ! A8    A(4,6,5)              120.4173         estimate D2E/DX2                !
 ! A9    A(4,6,8)              117.517          estimate D2E/DX2                !
 ! A10   A(5,6,8)              122.0411         estimate D2E/DX2                !
 ! A11   A(5,7,9)              120.7213         estimate D2E/DX2                !
 ! A12   A(5,7,12)             121.6015         estimate D2E/DX2                !
 ! A13   A(9,7,12)             117.677          estimate D2E/DX2                !
 ! A14   A(6,8,10)             119.1474         estimate D2E/DX2                !
 ! A15   A(6,8,13)             120.883          estimate D2E/DX2                !
 ! A16   A(10,8,13)            119.9686         estimate D2E/DX2                !
 ! A17   A(7,9,10)             120.5405         estimate D2E/DX2                !
 ! A18   A(7,9,14)             119.5727         estimate D2E/DX2                !
 ! A19   A(10,9,14)            119.8864         estimate D2E/DX2                !
 ! A20   A(8,10,9)             119.7637         estimate D2E/DX2                !
 ! A21   A(8,10,15)            120.2251         estimate D2E/DX2                !
 ! A22   A(9,10,15)            120.0109         estimate D2E/DX2                !
 ! A23   A(1,11,16)            107.9774         estimate D2E/DX2                !
 ! A24   A(1,11,17)            110.9849         estimate D2E/DX2                !
 ! A25   A(1,11,18)            111.1914         estimate D2E/DX2                !
 ! A26   A(16,11,17)           107.6616         estimate D2E/DX2                !
 ! A27   A(16,11,18)           107.7715         estimate D2E/DX2                !
 ! A28   A(17,11,18)           111.082          estimate D2E/DX2                !
 ! D1    D(11,1,5,6)          -156.8508         estimate D2E/DX2                !
 ! D2    D(11,1,5,7)            23.1752         estimate D2E/DX2                !
 ! D3    D(5,1,11,16)          169.0424         estimate D2E/DX2                !
 ! D4    D(5,1,11,17)          -73.1771         estimate D2E/DX2                !
 ! D5    D(5,1,11,18)           51.0105         estimate D2E/DX2                !
 ! D6    D(2,4,6,5)            -62.3767         estimate D2E/DX2                !
 ! D7    D(2,4,6,8)            119.392          estimate D2E/DX2                !
 ! D8    D(3,4,6,5)            121.2676         estimate D2E/DX2                !
 ! D9    D(3,4,6,8)            -56.9638         estimate D2E/DX2                !
 ! D10   D(1,5,6,4)             -0.9003         estimate D2E/DX2                !
 ! D11   D(1,5,6,8)            177.2493         estimate D2E/DX2                !
 ! D12   D(7,5,6,4)            179.0752         estimate D2E/DX2                !
 ! D13   D(7,5,6,8)             -2.7752         estimate D2E/DX2                !
 ! D14   D(1,5,7,9)           -177.4698         estimate D2E/DX2                !
 ! D15   D(1,5,7,12)             2.6793         estimate D2E/DX2                !
 ! D16   D(6,5,7,9)              2.556          estimate D2E/DX2                !
 ! D17   D(6,5,7,12)          -177.2949         estimate D2E/DX2                !
 ! D18   D(4,6,8,10)           179.3588         estimate D2E/DX2                !
 ! D19   D(4,6,8,13)            -0.292          estimate D2E/DX2                !
 ! D20   D(5,6,8,10)             1.1581         estimate D2E/DX2                !
 ! D21   D(5,6,8,13)          -178.4927         estimate D2E/DX2                !
 ! D22   D(5,7,9,10)            -0.7696         estimate D2E/DX2                !
 ! D23   D(5,7,9,14)           179.0254         estimate D2E/DX2                !
 ! D24   D(12,7,9,10)          179.0869         estimate D2E/DX2                !
 ! D25   D(12,7,9,14)           -1.118          estimate D2E/DX2                !
 ! D26   D(6,8,10,9)             0.7306         estimate D2E/DX2                !
 ! D27   D(6,8,10,15)         -179.4649         estimate D2E/DX2                !
 ! D28   D(13,8,10,9)         -179.6154         estimate D2E/DX2                !
 ! D29   D(13,8,10,15)           0.1892         estimate D2E/DX2                !
 ! D30   D(7,9,10,8)            -0.9203         estimate D2E/DX2                !
 ! D31   D(7,9,10,15)          179.2747         estimate D2E/DX2                !
 ! D32   D(14,9,10,8)          179.2853         estimate D2E/DX2                !
 ! D33   D(14,9,10,15)          -0.5197         estimate D2E/DX2                !
 --------------------------------------------------------------------------------
 Trust Radius=3.00D-01 FncErr=5.00D-06 GrdErr=5.00D-06 EigMax=2.50D+02 EigMin=1.00D-04
 Number of steps in this run=     89 maximum allowed number of steps=    108.
 GradGradGradGradGradGradGradGradGradGradGradGradGradGradGradGradGradGrad

                          Input orientation:                          
 ---------------------------------------------------------------------
 Center     Atomic      Atomic             Coordinates (Angstroms)
 Number     Number       Type             X           Y           Z
 ---------------------------------------------------------------------
      1          8           0        1.051760   -0.272030    0.115420
      2          8           0        2.962280   -1.922190   -1.380970
      3          8           0        1.579820   -3.636040   -1.316740
      4          7           0        1.836240   -2.433240   -1.466130
      5          6           0        0.364920   -0.488210   -1.047040
      6          6           0        0.733730   -1.572130   -1.852590
      7          6           0       -0.693580    0.316930   -1.483370
      8          6           0        0.042250   -1.893520   -3.030180
      9          6           0       -1.389400    0.008740   -2.658890
     10          6           0       -1.029450   -1.098380   -3.425470
     11          6           0        0.367020    0.469440    1.121710
     12          1           0       -1.003410    1.198480   -0.930270
     13          1           0        0.329980   -2.754710   -3.629310
     14          1           0       -2.219720    0.638600   -2.972380
     15          1           0       -1.583460   -1.336630   -4.330930
     16          1           0        0.945220    0.395590    2.047970
     17          1           0        0.303720    1.528590    0.853340
     18          1           0       -0.627230    0.051540    1.313960
 ---------------------------------------------------------------------
                    Distance matrix (angstroms):
                    1          2          3          4          5
     1  O    0.000000
     2  O    2.934672   0.000000
     3  O    3.694116   2.202862   0.000000
     4  N    2.790616   1.239512   1.238869   0.000000
     5  C    1.367405   2.985647   3.384901   2.474583   0.000000
     6  C    2.380014   2.304648   2.294064   1.451341   1.399934
     7  C    2.439101   4.288293   4.563122   3.736806   1.399663
     8  C    3.680100   3.353698   2.887278   2.440482   2.451909
     9  C    3.706061   4.929370   4.888973   4.217902   2.433651
    10  C    4.189534   4.559885   4.206513   3.719280   2.823739
    11  C    1.425225   4.326508   4.926651   4.157051   2.370775
    12  H    2.734884   5.066400   5.495000   4.641137   2.175060
    13  H    4.550568   3.560495   2.772512   2.655468   3.436039
    14  H    4.589808   5.995278   5.954007   5.306204   3.414235
    15  H    5.277100   5.450587   4.937506   4.593907   3.911513
    16  H    2.047393   4.604157   5.289426   4.598380   3.270617
    17  H    2.084783   4.895709   5.745527   4.839902   2.771763
    18  H    2.088110   4.903350   5.038839   4.468973   2.617253
                    6          7          8          9         10
     6  C    0.000000
     7  C    2.396265   0.000000
     8  C    1.402909   2.796454   0.000000
     9  C    2.767120   1.400355   2.409579   0.000000
    10  C    2.409812   2.426451   1.391777   1.393888   0.000000
    11  C    3.626147   2.816837   4.788240   4.194066   5.008496
    12  H    3.397736   1.085838   3.881171   2.133681   3.391499
    13  H    2.172152   3.884290   1.087839   3.396268   2.152447
    14  H    3.855402   2.156322   3.395803   1.088316   2.153865
    15  H    3.401029   3.410974   2.155229   2.154854   1.087910
    16  H    4.373902   3.893869   5.642959   5.268267   6.007480
    17  H    4.137805   2.814772   5.182753   4.184777   5.194856
    18  H    3.809929   2.810674   4.806559   4.045525   4.893495
                   11         12         13         14         15
    11  C    0.000000
    12  H    2.572975   0.000000
    13  H    5.741838   4.968949   0.000000
    14  H    4.845762   2.441944   4.295006   0.000000
    15  H    6.066098   4.281090   2.482836   2.480326   0.000000
    16  H    1.094407   3.648521   6.521842   5.939681   7.077088
    17  H    1.094453   2.235805   6.200121   4.668615   6.216719
    18  H    1.095506   2.548245   5.764305   4.610138   5.891195
                   16         17         18
    16  H    0.000000
    17  H    1.767018   0.000000
    18  H    1.769107   1.805690   0.000000
 Symmetry turned off by external request.
 Stoichiometry    C7H7NO3
 Framework group  C1[X(C7H7NO3)]
 Deg. of freedom    48
 Full point group                 C1      NOp   1
 Rotational constants (GHZ):           1.3922757           1.1622577           0.6938531
 Standard basis: 6-311G(d) (5D, 7F)
   219 basis functions,   387 primitive gaussians,   230 cartesian basis functions
    40 alpha electrons       40 beta electrons
       nuclear repulsion energy       600.9894155059 Hartrees.
 NAtoms=   18 NActive=   18 NUniq=   18 SFac= 1.00D+00 NAtFMM=   60 NAOKFM=F Big=F
 Integral buffers will be    131072 words long.
 Raffenetti 2 integral format.
 Two-electron integral symmetry is turned off.
 ------------------------------------------------------------------------------
 Polarizable Continuum Model (PCM)
 =================================
 Model                : PCM.
 Atomic radii         : UFF (Universal Force Field).
 Polarization charges : Total charges.
 Charge compensation  : None.
 Solution method      : On-the-fly selection.
 Cavity type          : Scaled VdW (van der Waals Surface) (Alpha=1.100).
 Cavity algorithm     : GePol (No added spheres)
                        Default sphere list used, NSphG=   18.
                        Lebedev-Laikov grids with approx.  5.0 points / Ang**2.
                        Smoothing algorithm: York/Karplus (Gamma=1.0000).
                        Polarization charges: spherical gaussians, with
                                              point-specific exponents (IZeta= 3).
                        Self-potential: point-specific (ISelfS= 7).
                        Self-field    : sphere-specific E.n sum rule (ISelfD= 2).
 1st derivatives      : Analytical E(r).r(x)/FMM algorithm (CHGder, D1EAlg=3).
                        Cavity 1st derivative terms included.
 Solvent              : Water, Eps=  78.355300 Eps(inf)=   1.777849
 ------------------------------------------------------------------------------
 Spheres list:
 ISph  on   Nord     Re0    Alpha      Xe            Ye            Ze
    1   O      1    1.7500  1.100      1.051760     -0.272030      0.115420
    2   O      2    1.7500  1.100      2.962280     -1.922190     -1.380970
    3   O      3    1.7500  1.100      1.579820     -3.636040     -1.316740
    4   N      4    1.8300  1.100      1.836240     -2.433240     -1.466130
    5   C      5    1.9255  1.100      0.364920     -0.488210     -1.047040
    6   C      6    1.9255  1.100      0.733730     -1.572130     -1.852590
    7   C      7    1.9255  1.100     -0.693580      0.316930     -1.483370
    8   C      8    1.9255  1.100      0.042250     -1.893520     -3.030180
    9   C      9    1.9255  1.100     -1.389400      0.008740     -2.658890
   10   C     10    1.9255  1.100     -1.029450     -1.098380     -3.425470
   11   C     11    1.9255  1.100      0.367020      0.469440      1.121710
   12   H     12    1.4430  1.100     -1.003410      1.198480     -0.930270
   13   H     13    1.4430  1.100      0.329980     -2.754710     -3.629310
   14   H     14    1.4430  1.100     -2.219720      0.638600     -2.972380
   15   H     15    1.4430  1.100     -1.583460     -1.336630     -4.330930
   16   H     16    1.4430  1.100      0.945220      0.395590      2.047970
   17   H     17    1.4430  1.100      0.303720      1.528590      0.853340
   18   H     18    1.4430  1.100     -0.627230      0.051540      1.313960
 ------------------------------------------------------------------------------
 One-electron integrals computed using PRISM.
 NBasis=   219 RedAO= T EigKep=  1.98D-04  NBF=   219
 NBsUse=   219 1.00D-06 EigRej= -1.00D+00 NBFU=   219
 ExpMin= 1.03D-01 ExpMax= 8.59D+03 ExpMxC= 1.30D+03 IAcc=3 IRadAn=         5 AccDes= 0.00D+00
 Harris functional with IExCor=  402 and IRadAn=       5 diagonalized for initial guess.
 HarFok:  IExCor=  402 AccDes= 0.00D+00 IRadAn=         5 IDoV= 1 UseB2=F ITyADJ=14
 ICtDFT=  3500011 ScaDFX=  1.000000  1.000000  1.000000  1.000000
 FoFCou: FMM=F IPFlag=           0 FMFlag=      100000 FMFlg1=           0
         NFxFlg=           0 DoJE=T BraDBF=F KetDBF=T FulRan=T
         wScrn=  0.000000 ICntrl=       500 IOpCl=  0 I1Cent=   200000004 NGrid=           0
         NMat0=    1 NMatS0=      1 NMatT0=    0 NMatD0=    1 NMtDS0=    0 NMtDT0=    0
 Symmetry not used in FoFCou.
 Keep R1 ints in memory in canonical form, NReq=296340445.
 Requested convergence on RMS density matrix=1.00D-08 within 128 cycles.
 Requested convergence on MAX density matrix=1.00D-06.
 Requested convergence on             energy=1.00D-06.
 No special actions if energy rises.
 Inv3:  Mode=1 IEnd=     7272747.
 Iteration    1 A*A^-1 deviation from unit magnitude is 4.55D-15 for   1535.
 Iteration    1 A*A^-1 deviation from orthogonality  is 1.96D-15 for   1380    426.
 Iteration    1 A^-1*A deviation from unit magnitude is 4.33D-15 for   1535.
 Iteration    1 A^-1*A deviation from orthogonality  is 1.49D-15 for   1533    343.
 Error on total polarization charges =  0.00841
 SCF Done:  E(RB3LYP) =  -551.402914314     A.U. after   14 cycles
            NFock= 14  Conv=0.23D-08     -V/T= 2.0036

 **********************************************************************

            Population analysis using the SCF Density.

 **********************************************************************

 Alpha  occ. eigenvalues --  -19.16886 -19.16857 -19.16831 -14.56277 -10.26760
 Alpha  occ. eigenvalues --  -10.24226 -10.22659 -10.20683 -10.19756 -10.19456
 Alpha  occ. eigenvalues --  -10.18975  -1.23728  -1.08661  -1.06623  -0.89305
 Alpha  occ. eigenvalues --   -0.81846  -0.77671  -0.72676  -0.69993  -0.63067
 Alpha  occ. eigenvalues --   -0.60757  -0.57099  -0.54671  -0.53752  -0.53145
 Alpha  occ. eigenvalues --   -0.49222  -0.48573  -0.48378  -0.46267  -0.43688
 Alpha  occ. eigenvalues --   -0.40478  -0.40048  -0.38392  -0.36078  -0.33625
 Alpha  occ. eigenvalues --   -0.32951  -0.32530  -0.32156  -0.27537  -0.25172
 Alpha virt. eigenvalues --   -0.09738  -0.03276  -0.01884   0.04245   0.05960
 Alpha virt. eigenvalues --    0.08368   0.08834   0.10758   0.11371   0.11937
 Alpha virt. eigenvalues --    0.12995   0.14524   0.16049   0.20692   0.23552
 Alpha virt. eigenvalues --    0.25975   0.26771   0.27280   0.30794   0.31787
 Alpha virt. eigenvalues --    0.33175   0.34192   0.36771   0.37154   0.37943
 Alpha virt. eigenvalues --    0.38817   0.39797   0.41782   0.42385   0.43764
 Alpha virt. eigenvalues --    0.44632   0.45611   0.48187   0.49502   0.50606
 Alpha virt. eigenvalues --    0.52510   0.53524   0.56379   0.57451   0.58934
 Alpha virt. eigenvalues --    0.59079   0.60620   0.61991   0.62988   0.63868
 Alpha virt. eigenvalues --    0.65937   0.66439   0.67496   0.68224   0.73580
 Alpha virt. eigenvalues --    0.73900   0.74386   0.75098   0.76483   0.78783
 Alpha virt. eigenvalues --    0.80873   0.81238   0.82449   0.84273   0.86105
 Alpha virt. eigenvalues --    0.88818   0.90755   0.94697   0.95260   0.96687
 Alpha virt. eigenvalues --    0.98449   1.00090   1.01555   1.08905   1.09954
 Alpha virt. eigenvalues --    1.16171   1.17259   1.19933   1.21423   1.22990
 Alpha virt. eigenvalues --    1.29937   1.31517   1.33514   1.40669   1.45254
 Alpha virt. eigenvalues --    1.46059   1.47374   1.48966   1.50867   1.52631
 Alpha virt. eigenvalues --    1.54011   1.57677   1.63420   1.66059   1.68720
 Alpha virt. eigenvalues --    1.70029   1.73616   1.75118   1.75894   1.79289
 Alpha virt. eigenvalues --    1.80917   1.86718   1.88991   1.89463   1.90745
 Alpha virt. eigenvalues --    1.92594   2.00387   2.05814   2.14867   2.20753
 Alpha virt. eigenvalues --    2.22373   2.23419   2.24375   2.25192   2.29462
 Alpha virt. eigenvalues --    2.30772   2.32901   2.34699   2.38314   2.40697
 Alpha virt. eigenvalues --    2.49236   2.51159   2.52480   2.64467   2.66889
 Alpha virt. eigenvalues --    2.67515   2.74332   2.77951   2.79368   2.80588
 Alpha virt. eigenvalues --    2.81261   2.81866   2.83587   2.85729   2.93094
 Alpha virt. eigenvalues --    2.97562   3.01113   3.06508   3.10864   3.12803
 Alpha virt. eigenvalues --    3.12951   3.19434   3.22455   3.23777   3.24935
 Alpha virt. eigenvalues --    3.26597   3.28392   3.31376   3.34002   3.35367
 Alpha virt. eigenvalues --    3.42847   3.47197   3.51943   3.53239   3.62353
 Alpha virt. eigenvalues --    3.68275   3.74129   3.83397   3.90607   3.93456
 Alpha virt. eigenvalues --    4.04869   4.33838   4.53670   4.75967   4.81210
 Alpha virt. eigenvalues --    4.83465   4.84932   4.89984   4.93023   5.23073
 Alpha virt. eigenvalues --    5.46184   5.66507   5.95462  23.20286  23.41794
 Alpha virt. eigenvalues --   23.78262  23.79838  23.99021  24.00060  24.10634
 Alpha virt. eigenvalues --   35.33156  49.79878  49.87700  49.90989
          Condensed to atoms (all electrons):
               1          2          3          4          5          6
     1  O    7.918384  -0.001090  -0.000190  -0.000179   0.421953  -0.080208
     2  O   -0.001090   8.189915  -0.103005   0.298504   0.004394  -0.101913
     3  O   -0.000190  -0.103005   8.182309   0.308887   0.004104  -0.122491
     4  N   -0.000179   0.298504   0.308887   6.117850  -0.037205   0.167353
     5  C    0.421953   0.004394   0.004104  -0.037205   4.689734   0.431763
     6  C   -0.080208  -0.101913  -0.122491   0.167353   0.431763   5.315751
     7  C   -0.084593   0.000082  -0.000236   0.005145   0.393058  -0.062410
     8  C    0.003168   0.000939   0.013599  -0.030969  -0.015636   0.436578
     9  C    0.006026  -0.000002   0.000036  -0.000407   0.004554  -0.044834
    10  C   -0.000478  -0.000212   0.000496   0.004405  -0.044988  -0.036979
    11  C    0.262060   0.000029   0.000006  -0.000278  -0.092265   0.007931
    12  H   -0.006556   0.000014   0.000004  -0.000119  -0.043007   0.002750
    13  H   -0.000068   0.000707   0.006502  -0.005458   0.005767  -0.052319
    14  H   -0.000070  -0.000000  -0.000000   0.000010   0.004737  -0.000590
    15  H    0.000003   0.000005  -0.000017  -0.000152  -0.000694   0.008341
    16  H   -0.019864   0.000055  -0.000002   0.000001   0.003776  -0.000271
    17  H   -0.031430  -0.000020   0.000000   0.000009  -0.011565  -0.001663
    18  H   -0.033867  -0.000027   0.000000   0.000009  -0.003688   0.002046
               7          8          9         10         11         12
     1  O   -0.084593   0.003168   0.006026  -0.000478   0.262060  -0.006556
     2  O    0.000082   0.000939  -0.000002  -0.000212   0.000029   0.000014
     3  O   -0.000236   0.013599   0.000036   0.000496   0.000006   0.000004
     4  N    0.005145  -0.030969  -0.000407   0.004405  -0.000278  -0.000119
     5  C    0.393058  -0.015636   0.004554  -0.044988  -0.092265  -0.043007
     6  C   -0.062410   0.436578  -0.044834  -0.036979   0.007931   0.002750
     7  C    5.320627  -0.060850   0.442876  -0.032375  -0.015958   0.391669
     8  C   -0.060850   4.987078  -0.037130   0.505677  -0.000176   0.000265
     9  C    0.442876  -0.037130   4.970050   0.509899  -0.000918  -0.032664
    10  C   -0.032375   0.505677   0.509899   4.981805   0.000135   0.005138
    11  C   -0.015958  -0.000176  -0.000918   0.000135   5.178285   0.004374
    12  H    0.391669   0.000265  -0.032664   0.005138   0.004374   0.431583
    13  H   -0.001105   0.396942   0.006680  -0.032511   0.000015   0.000043
    14  H   -0.039338   0.006750   0.397846  -0.040027  -0.000059  -0.005158
    15  H    0.007557  -0.042704  -0.043873   0.398631  -0.000000  -0.000289
    16  H    0.001266   0.000022   0.000037  -0.000003   0.381114   0.000022
    17  H    0.004020  -0.000004  -0.000041   0.000014   0.379937   0.001522
    18  H    0.003028  -0.000236  -0.001012  -0.000030   0.372819   0.000274
              13         14         15         16         17         18
     1  O   -0.000068  -0.000070   0.000003  -0.019864  -0.031430  -0.033867
     2  O    0.000707  -0.000000   0.000005   0.000055  -0.000020  -0.000027
     3  O    0.006502  -0.000000  -0.000017  -0.000002   0.000000   0.000000
     4  N   -0.005458   0.000010  -0.000152   0.000001   0.000009   0.000009
     5  C    0.005767   0.004737  -0.000694   0.003776  -0.011565  -0.003688
     6  C   -0.052319  -0.000590   0.008341  -0.000271  -0.001663   0.002046
     7  C   -0.001105  -0.039338   0.007557   0.001266   0.004020   0.003028
     8  C    0.396942   0.006750  -0.042704   0.000022  -0.000004  -0.000236
     9  C    0.006680   0.397846  -0.043873   0.000037  -0.000041  -0.001012
    10  C   -0.032511  -0.040027   0.398631  -0.000003   0.000014  -0.000030
    11  C    0.000015  -0.000059  -0.000000   0.381114   0.379937   0.372819
    12  H    0.000043  -0.005158  -0.000289   0.000022   0.001522   0.000274
    13  H    0.439817  -0.000251  -0.006661  -0.000000  -0.000000   0.000001
    14  H   -0.000251   0.453666  -0.005740   0.000000   0.000015  -0.000002
    15  H   -0.006661  -0.005740   0.460671  -0.000000   0.000001   0.000002
    16  H   -0.000000   0.000000  -0.000000   0.444509  -0.028327  -0.024416
    17  H   -0.000000   0.000015   0.000001  -0.028327   0.495231  -0.039056
    18  H    0.000001  -0.000002   0.000002  -0.024416  -0.039056   0.491807
 Mulliken charges:
               1
     1  O   -0.353001
     2  O   -0.288375
     3  O   -0.290002
     4  N    0.172592
     5  C    0.285208
     6  C    0.131165
     7  C   -0.272461
     8  C   -0.163314
     9  C   -0.177125
    10  C   -0.218596
    11  C   -0.477049
    12  H    0.250136
    13  H    0.241900
    14  H    0.228212
    15  H    0.224922
    16  H    0.242082
    17  H    0.231357
    18  H    0.232348
 Sum of Mulliken charges =  -0.00000
 Mulliken charges with hydrogens summed into heavy atoms:
               1
     1  O   -0.353001
     2  O   -0.288375
     3  O   -0.290002
     4  N    0.172592
     5  C    0.285208
     6  C    0.131165
     7  C   -0.022325
     8  C    0.078586
     9  C    0.051087
    10  C    0.006326
    11  C    0.228739
 Electronic spatial extent (au):  <R**2>=           2663.2993
 Charge=             -0.0000 electrons
 Dipole moment (field-independent basis, Debye):
    X=             -5.2519    Y=              4.1627    Z=             -0.1664  Tot=              6.7036
 Quadrupole moment (field-independent basis, Debye-Ang):
   XX=            -73.4617   YY=            -73.4372   ZZ=            -50.8447
   XY=              7.1963   XZ=              8.3744   YZ=              1.5308
 Traceless Quadrupole moment (field-independent basis, Debye-Ang):
   XX=             -7.5471   YY=             -7.5226   ZZ=             15.0698
   XY=              7.1963   XZ=              8.3744   YZ=              1.5308
 Octapole moment (field-independent basis, Debye-Ang**2):
  XXX=           -128.3855  YYY=            253.7999  ZZZ=            235.6737  XYY=            -55.2636
  XXY=             94.8494  XXZ=             97.2985  XZZ=            -47.1581  YZZ=             46.2760
  YYZ=             94.5763  XYZ=             -5.7606
 Hexadecapole moment (field-independent basis, Debye-Ang**3):
 XXXX=           -851.9017 YYYY=          -1310.4217 ZZZZ=          -1384.0735 XXXY=            334.8240
 XXXZ=             67.8600 YYYX=            358.9259 YYYZ=           -443.0277 ZZZX=             79.9360
 ZZZY=           -301.3093 XXYY=           -371.3010 XXZZ=           -360.5213 YYZZ=           -397.1144
 XXYZ=           -169.1527 YYXZ=             28.5005 ZZXY=             94.4208
 N-N= 6.009894155059D+02 E-N=-2.491882744267D+03  KE= 5.494462676684D+02
 D1PCM: PCM CHGder 1st derivatives, ID1Alg=3 FixD1E=F DoIter=F DoCFld=F I1PDM=0.
 Calling FoFJK, ICntrl=      2127 FMM=F ISym2X=0 I1Cent= 0 IOpClX= 0 NMat=1 NMatS=1 NMatT=0.
 -------------------------------------------------------------------
 Center     Atomic                   Forces (Hartrees/Bohr)
 Number     Number              X              Y              Z
 -------------------------------------------------------------------
      1        8          -0.003589728   -0.007422970   -0.008820105
      2        8          -0.018080388   -0.011296101    0.003673387
      3        8           0.008707912    0.016701285   -0.000598106
      4        7           0.015889213   -0.009940850   -0.001436573
      5        6           0.004187672    0.008826766    0.006125690
      6        6          -0.009663746   -0.001377411   -0.009914998
      7        6          -0.008548950    0.001535424   -0.006155923
      8        6          -0.001201450    0.001805802    0.005007663
      9        6           0.004019108   -0.000158568    0.004237621
     10        6          -0.000673123   -0.000175019   -0.003003957
     11        6          -0.000340353    0.006259350    0.010057556
     12        1           0.002336217   -0.003857408    0.001575367
     13        1           0.001380326    0.001918638    0.004094430
     14        1           0.002572044   -0.000995658    0.001496754
     15        1           0.002546035   -0.000016927    0.001948108
     16        1           0.001942222   -0.002506646   -0.005844481
     17        1          -0.002219703   -0.001486433    0.000305138
     18        1           0.000736691    0.002186724   -0.002747570
 -------------------------------------------------------------------
 Cartesian Forces:  Max     0.018080388 RMS     0.006244456

 GradGradGradGradGradGradGradGradGradGradGradGradGradGradGradGradGradGrad
 Berny optimization.
 FormGI is forming the generalized inverse of G from B-inverse, IUseBI=4.
 Internal  Forces:  Max     0.020829084 RMS     0.004549334
 Search for a local minimum.
 Step number   1 out of a maximum of   89
 All quantities printed in internal units (Hartrees-Bohrs-Radians)
 Mixed Optimization -- RFO/linear search
 Second derivative matrix not updated -- first step.
 ITU=  0
     Eigenvalues ---    0.01013   0.01043   0.01358   0.01764   0.02078
     Eigenvalues ---    0.02089   0.02095   0.02099   0.02121   0.02123
     Eigenvalues ---    0.02131   0.02161   0.02184   0.09984   0.10506
     Eigenvalues ---    0.16000   0.16000   0.16000   0.16000   0.16000
     Eigenvalues ---    0.16000   0.16000   0.21999   0.22484   0.24475
     Eigenvalues ---    0.24988   0.25000   0.25000   0.25000   0.25000
     Eigenvalues ---    0.34184   0.34303   0.34308   0.35008   0.35055
     Eigenvalues ---    0.35064   0.35298   0.38070   0.41458   0.41683
     Eigenvalues ---    0.42207   0.45322   0.45621   0.46260   0.46691
     Eigenvalues ---    0.51479   0.87235   0.87489
 RFO step:  Lambda=-7.01484003D-03 EMin= 1.01264028D-02
 Linear search not attempted -- first point.
 Iteration  1 RMS(Cart)=  0.08526529 RMS(Int)=  0.01237231
 Iteration  2 RMS(Cart)=  0.01606068 RMS(Int)=  0.00274630
 Iteration  3 RMS(Cart)=  0.00057307 RMS(Int)=  0.00269313
 Iteration  4 RMS(Cart)=  0.00000449 RMS(Int)=  0.00269313
 Iteration  5 RMS(Cart)=  0.00000006 RMS(Int)=  0.00269313
 Variable       Old X    -DE/DX   Delta X   Delta X   Delta X     New X
                                 (Linear)    (Quad)   (Total)
    R1        2.58402  -0.00821   0.00000  -0.01574  -0.01574   2.56828
    R2        2.69328   0.00351   0.00000   0.00829   0.00829   2.70158
    R3        2.34234  -0.02083   0.00000  -0.02369  -0.02369   2.31865
    R4        2.34112  -0.01809   0.00000  -0.02051  -0.02051   2.32061
    R5        2.74264   0.00808   0.00000   0.02084   0.02084   2.76348
    R6        2.64549   0.00097   0.00000   0.00205   0.00204   2.64753
    R7        2.64498  -0.00153   0.00000  -0.00303  -0.00307   2.64191
    R8        2.65111  -0.01032   0.00000  -0.02285  -0.02282   2.62829
    R9        2.64629  -0.00608   0.00000  -0.01282  -0.01285   2.63344
   R10        2.05194  -0.00300   0.00000  -0.00833  -0.00833   2.04361
   R11        2.63008  -0.00234   0.00000  -0.00517  -0.00512   2.62495
   R12        2.05572  -0.00341   0.00000  -0.00953  -0.00953   2.04619
   R13        2.63407   0.00068   0.00000   0.00147   0.00148   2.63555
   R14        2.05662  -0.00297   0.00000  -0.00832  -0.00832   2.04830
   R15        2.05585  -0.00291   0.00000  -0.00815  -0.00815   2.04770
   R16        2.06813  -0.00375   0.00000  -0.01072  -0.01072   2.05741
   R17        2.06822  -0.00138   0.00000  -0.00394  -0.00394   2.06427
   R18        2.07021  -0.00199   0.00000  -0.00569  -0.00569   2.06451
    A1        2.02769   0.01016   0.00000   0.03954   0.03954   2.06723
    A2        2.18958  -0.00719   0.00000  -0.02230  -0.03627   2.15330
    A3        2.05305   0.00236   0.00000   0.01485   0.00129   2.05434
    A4        2.03860   0.00517   0.00000   0.02578   0.01221   2.05081
    A5        2.07060  -0.00680   0.00000  -0.02682  -0.02673   2.04388
    A6        2.15788   0.00644   0.00000   0.02469   0.02479   2.18267
    A7        2.05470   0.00036   0.00000   0.00213   0.00194   2.05664
    A8        2.10168  -0.00319   0.00000  -0.01205  -0.01207   2.08961
    A9        2.05106   0.00252   0.00000   0.01020   0.01019   2.06125
   A10        2.13002   0.00069   0.00000   0.00251   0.00229   2.13231
   A11        2.10698  -0.00208   0.00000  -0.00759  -0.00782   2.09917
   A12        2.12235  -0.00246   0.00000  -0.01717  -0.01708   2.10527
   A13        2.05385   0.00454   0.00000   0.02474   0.02483   2.07868
   A14        2.07951   0.00071   0.00000   0.00223   0.00210   2.08161
   A15        2.10981  -0.00372   0.00000  -0.02121  -0.02122   2.08859
   A16        2.09385   0.00301   0.00000   0.01908   0.01906   2.11291
   A17        2.10383   0.00152   0.00000   0.00779   0.00763   2.11146
   A18        2.08694  -0.00176   0.00000  -0.00987  -0.00979   2.07714
   A19        2.09241   0.00024   0.00000   0.00209   0.00217   2.09459
   A20        2.09027  -0.00115   0.00000  -0.00523  -0.00534   2.08493
   A21        2.09832  -0.00068   0.00000  -0.00492  -0.00489   2.09343
   A22        2.09459   0.00184   0.00000   0.01018   0.01021   2.10479
   A23        1.88456  -0.00771   0.00000  -0.04537  -0.04535   1.83921
   A24        1.93705   0.00249   0.00000   0.01444   0.01448   1.95154
   A25        1.94066  -0.00005   0.00000  -0.00063  -0.00065   1.94001
   A26        1.87905   0.00291   0.00000   0.01809   0.01819   1.89724
   A27        1.88097   0.00427   0.00000   0.02652   0.02647   1.90743
   A28        1.93875  -0.00194   0.00000  -0.01307  -0.01306   1.92569
    D1       -2.73756  -0.00236   0.00000  -0.08352  -0.08347  -2.82103
    D2        0.40448  -0.00231   0.00000  -0.08183  -0.08188   0.32260
    D3        2.95035  -0.00025   0.00000  -0.01421  -0.01409   2.93626
    D4       -1.27718   0.00004   0.00000  -0.01148  -0.01155  -1.28874
    D5        0.89030  -0.00070   0.00000  -0.01835  -0.01840   0.87190
    D6       -1.08868   0.00487   0.00000   0.27595   0.27443  -0.81424
    D7        2.08378   0.00427   0.00000   0.25188   0.25042   2.33420
    D8        2.11652  -0.00029   0.00000  -0.01954  -0.01808   2.09844
    D9       -0.99421  -0.00089   0.00000  -0.04362  -0.04210  -1.03630
   D10       -0.01571   0.00023   0.00000   0.00840   0.00857  -0.00715
   D11        3.09358   0.00089   0.00000   0.03371   0.03373   3.12731
   D12        3.12545   0.00018   0.00000   0.00682   0.00711   3.13256
   D13       -0.04844   0.00083   0.00000   0.03213   0.03227  -0.01617
   D14       -3.09743  -0.00134   0.00000  -0.04679  -0.04662   3.13913
   D15        0.04676  -0.00102   0.00000  -0.03584  -0.03589   0.01087
   D16        0.04461  -0.00128   0.00000  -0.04510  -0.04502  -0.00041
   D17       -3.09438  -0.00096   0.00000  -0.03415  -0.03429  -3.12867
   D18        3.13040   0.00073   0.00000   0.02994   0.03014  -3.12264
   D19       -0.00510   0.00020   0.00000   0.01088   0.01121   0.00612
   D20        0.02021   0.00019   0.00000   0.00572   0.00576   0.02598
   D21       -3.11529  -0.00034   0.00000  -0.01334  -0.01316  -3.12845
   D22       -0.01343   0.00058   0.00000   0.02043   0.02036   0.00693
   D23        3.12458   0.00068   0.00000   0.02398   0.02393  -3.13467
   D24        3.12566   0.00026   0.00000   0.00984   0.00973   3.13539
   D25       -0.01951   0.00036   0.00000   0.01339   0.01331  -0.00621
   D26        0.01275  -0.00092   0.00000  -0.03158  -0.03155  -0.01880
   D27       -3.13225  -0.00058   0.00000  -0.02016  -0.02031   3.13062
   D28       -3.13488  -0.00042   0.00000  -0.01284  -0.01249   3.13581
   D29        0.00330  -0.00007   0.00000  -0.00142  -0.00126   0.00204
   D30       -0.01606   0.00054   0.00000   0.01892   0.01886   0.00280
   D31        3.12893   0.00020   0.00000   0.00755   0.00758   3.13651
   D32        3.12912   0.00045   0.00000   0.01538   0.01527  -3.13879
   D33       -0.00907   0.00011   0.00000   0.00402   0.00399  -0.00508
         Item               Value     Threshold  Converged?
 Maximum Force            0.020829     0.000450     NO 
 RMS     Force            0.004549     0.000300     NO 
 Maximum Displacement     0.519552     0.001800     NO 
 RMS     Displacement     0.095961     0.001200     NO 
 Predicted change in Energy=-4.130483D-03
 GradGradGradGradGradGradGradGradGradGradGradGradGradGradGradGradGradGrad

                          Input orientation:                          
 ---------------------------------------------------------------------
 Center     Atomic      Atomic             Coordinates (Angstroms)
 Number     Number       Type             X           Y           Z
 ---------------------------------------------------------------------
      1          8           0        1.018184   -0.313656    0.082537
      2          8           0        2.851546   -1.858844   -1.106035
      3          8           0        1.611750   -3.616740   -1.315761
      4          7           0        1.827371   -2.419455   -1.483201
      5          6           0        0.310110   -0.508202   -1.061085
      6          6           0        0.697850   -1.578565   -1.877677
      7          6           0       -0.767779    0.276585   -1.481540
      8          6           0        0.036530   -1.883469   -3.062628
      9          6           0       -1.422440   -0.011804   -2.677470
     10          6           0       -1.025305   -1.086992   -3.472057
     11          6           0        0.434956    0.481560    1.117560
     12          1           0       -1.097304    1.121175   -0.891982
     13          1           0        0.363047   -2.727846   -3.656652
     14          1           0       -2.251545    0.613980   -2.987065
     15          1           0       -1.541773   -1.308466   -4.398552
     16          1           0        1.064493    0.324438    1.991824
     17          1           0        0.443432    1.544598    0.866283
     18          1           0       -0.582431    0.152534    1.341631
 ---------------------------------------------------------------------
                    Distance matrix (angstroms):
                    1          2          3          4          5
     1  O    0.000000
     2  O    2.676103   0.000000
     3  O    3.635647   2.161314   0.000000
     4  N    2.746036   1.226978   1.228014   0.000000
     5  C    1.359076   2.878395   3.379665   2.476520   0.000000
     6  C    2.354793   2.304864   2.303286   1.462370   1.401014
     7  C    2.446300   4.219073   4.565920   3.742117   1.398041
     8  C    3.649660   3.428291   2.921830   2.447240   2.443845
     9  C    3.696674   4.914055   4.904705   4.217148   2.420918
    10  C    4.172414   4.606929   4.243030   3.724080   2.816224
    11  C    1.429613   4.032589   4.909374   4.137471   2.396186
    12  H    2.735638   4.951742   5.474158   4.630262   2.159694
    13  H    4.498783   3.667893   2.798064   2.638795   3.415639
    14  H    4.579748   5.974502   5.968023   5.301027   3.395698
    15  H    5.255777   5.517685   4.977594   4.591808   3.899818
    16  H    2.013625   4.190108   5.174214   4.492965   3.253096
    17  H    2.097071   4.612209   5.724133   4.811349   2.818956
    18  H    2.089167   4.672142   5.107210   4.516852   2.646931
                    6          7          8          9         10
     6  C    0.000000
     7  C    2.397201   0.000000
     8  C    1.390834   2.795101   0.000000
     9  C    2.755003   1.393556   2.404178   0.000000
    10  C    2.398531   2.426483   1.389065   1.394674   0.000000
    11  C    3.644814   2.871220   4.819344   4.253891   5.065304
    12  H    3.388623   1.081433   3.876231   2.139468   3.396759
    13  H    2.144223   3.877691   1.082797   3.394650   2.157313
    14  H    3.838870   2.140561   3.387956   1.083913   2.152251
    15  H    3.382850   3.408873   2.146244   2.158170   1.083597
    16  H    4.327688   3.927310   5.610619   5.300963   6.017756
    17  H    4.165116   2.930385   5.230063   4.296749   5.282390
    18  H    3.872953   2.831967   4.891413   4.109233   4.990406
                   11         12         13         14         15
    11  C    0.000000
    12  H    2.606758   0.000000
    13  H    5.753134   4.958930   0.000000
    14  H    4.907420   2.445177   4.295606   0.000000
    15  H    6.126920   4.289142   2.488653   2.488347   0.000000
    16  H    1.088734   3.691137   6.458618   5.989097   7.091961
    17  H    1.092366   2.375847   6.222313   4.793458   6.308684
    18  H    1.092494   2.488450   5.845798   4.662240   6.000380
                   16         17         18
    16  H    0.000000
    17  H    1.772386   0.000000
    18  H    1.778950   1.793375   0.000000
 Symmetry turned off by external request.
 Stoichiometry    C7H7NO3
 Framework group  C1[X(C7H7NO3)]
 Deg. of freedom    48
 Full point group                 C1      NOp   1
 Rotational constants (GHZ):           1.4020642           1.1920433           0.6935841
 Standard basis: 6-311G(d) (5D, 7F)
   219 basis functions,   387 primitive gaussians,   230 cartesian basis functions
    40 alpha electrons       40 beta electrons
       nuclear repulsion energy       603.8698314519 Hartrees.
 NAtoms=   18 NActive=   18 NUniq=   18 SFac= 1.00D+00 NAtFMM=   60 NAOKFM=F Big=F
 Integral buffers will be    131072 words long.
 Raffenetti 2 integral format.
 Two-electron integral symmetry is turned off.
 ------------------------------------------------------------------------------
 Polarizable Continuum Model (PCM)
 =================================
 Model                : PCM.
 Atomic radii         : UFF (Universal Force Field).
 Polarization charges : Total charges.
 Charge compensation  : None.
 Solution method      : On-the-fly selection.
 Cavity type          : Scaled VdW (van der Waals Surface) (Alpha=1.100).
 Cavity algorithm     : GePol (No added spheres)
                        Default sphere list used, NSphG=   18.
                        Lebedev-Laikov grids with approx.  5.0 points / Ang**2.
                        Smoothing algorithm: York/Karplus (Gamma=1.0000).
                        Polarization charges: spherical gaussians, with
                                              point-specific exponents (IZeta= 3).
                        Self-potential: point-specific (ISelfS= 7).
                        Self-field    : sphere-specific E.n sum rule (ISelfD= 2).
 1st derivatives      : Analytical E(r).r(x)/FMM algorithm (CHGder, D1EAlg=3).
                        Cavity 1st derivative terms included.
 Solvent              : Water, Eps=  78.355300 Eps(inf)=   1.777849
 ------------------------------------------------------------------------------
 Spheres list:
 ISph  on   Nord     Re0    Alpha      Xe            Ye            Ze
    1   O      1    1.7500  1.100      1.018184     -0.313656      0.082537
    2   O      2    1.7500  1.100      2.851546     -1.858844     -1.106035
    3   O      3    1.7500  1.100      1.611750     -3.616740     -1.315761
    4   N      4    1.8300  1.100      1.827371     -2.419455     -1.483201
    5   C      5    1.9255  1.100      0.310110     -0.508202     -1.061085
    6   C      6    1.9255  1.100      0.697850     -1.578565     -1.877677
    7   C      7    1.9255  1.100     -0.767779      0.276585     -1.481540
    8   C      8    1.9255  1.100      0.036530     -1.883469     -3.062628
    9   C      9    1.9255  1.100     -1.422440     -0.011804     -2.677470
   10   C     10    1.9255  1.100     -1.025305     -1.086992     -3.472057
   11   C     11    1.9255  1.100      0.434956      0.481560      1.117560
   12   H     12    1.4430  1.100     -1.097304      1.121175     -0.891982
   13   H     13    1.4430  1.100      0.363047     -2.727846     -3.656652
   14   H     14    1.4430  1.100     -2.251545      0.613980     -2.987065
   15   H     15    1.4430  1.100     -1.541773     -1.308466     -4.398552
   16   H     16    1.4430  1.100      1.064493      0.324438      1.991824
   17   H     17    1.4430  1.100      0.443432      1.544598      0.866283
   18   H     18    1.4430  1.100     -0.582431      0.152534      1.341631
 ------------------------------------------------------------------------------
 One-electron integrals computed using PRISM.
 NBasis=   219 RedAO= T EigKep=  1.94D-04  NBF=   219
 NBsUse=   219 1.00D-06 EigRej= -1.00D+00 NBFU=   219
 Initial guess from the checkpoint file:  "ground_state_opt.chk"
 B after Tr=    -0.082708   -0.002757    0.006445
         Rot=    0.999972   -0.000135    0.007255   -0.002076 Ang=  -0.86 deg.
 ExpMin= 1.03D-01 ExpMax= 8.59D+03 ExpMxC= 1.30D+03 IAcc=3 IRadAn=         5 AccDes= 0.00D+00
 Harris functional with IExCor=  402 and IRadAn=       5 diagonalized for initial guess.
 HarFok:  IExCor=  402 AccDes= 0.00D+00 IRadAn=         5 IDoV= 1 UseB2=F ITyADJ=14
 ICtDFT=  3500011 ScaDFX=  1.000000  1.000000  1.000000  1.000000
 FoFCou: FMM=F IPFlag=           0 FMFlag=      100000 FMFlg1=           0
         NFxFlg=           0 DoJE=T BraDBF=F KetDBF=T FulRan=T
         wScrn=  0.000000 ICntrl=       500 IOpCl=  0 I1Cent=   200000004 NGrid=           0
         NMat0=    1 NMatS0=      1 NMatT0=    0 NMatD0=    1 NMtDS0=    0 NMtDT0=    0
 Symmetry not used in FoFCou.
 Keep R1 ints in memory in canonical form, NReq=296340445.
 Requested convergence on RMS density matrix=1.00D-08 within 128 cycles.
 Requested convergence on MAX density matrix=1.00D-06.
 Requested convergence on             energy=1.00D-06.
 No special actions if energy rises.
 Inv3:  Mode=1 IEnd=     7263408.
 Iteration    1 A*A^-1 deviation from unit magnitude is 5.22D-15 for    374.
 Iteration    1 A*A^-1 deviation from orthogonality  is 1.80D-15 for   1379    358.
 Iteration    1 A^-1*A deviation from unit magnitude is 5.55D-15 for    373.
 Iteration    1 A^-1*A deviation from orthogonality  is 2.70D-15 for   1413    357.
 Error on total polarization charges =  0.00850
 SCF Done:  E(RB3LYP) =  -551.402524334     A.U. after   12 cycles
            NFock= 12  Conv=0.88D-08     -V/T= 2.0032
 D1PCM: PCM CHGder 1st derivatives, ID1Alg=3 FixD1E=F DoIter=F DoCFld=F I1PDM=0.
 Calling FoFJK, ICntrl=      2127 FMM=F ISym2X=0 I1Cent= 0 IOpClX= 0 NMat=1 NMatS=1 NMatT=0.
 -------------------------------------------------------------------
 Center     Atomic                   Forces (Hartrees/Bohr)
 Number     Number              X              Y              Z
 -------------------------------------------------------------------
      1        8          -0.006365026   -0.000814635   -0.004466430
      2        8           0.002316751   -0.001474389   -0.013678785
      3        8           0.001310871   -0.004014588   -0.014618032
      4        7          -0.003239429    0.003749235    0.038651978
      5        6           0.007667174    0.005258562    0.008077366
      6        6           0.001170759   -0.003505105   -0.015926617
      7        6          -0.002129916   -0.000552467   -0.001050450
      8        6          -0.000715919    0.001414700    0.001479956
      9        6           0.001356920   -0.001106205    0.000179444
     10        6          -0.002050516   -0.000273669   -0.000949594
     11        6           0.000731428    0.001357044    0.003186178
     12        1           0.000496594   -0.000293735    0.001645817
     13        1           0.000473868   -0.000528304    0.000324445
     14        1          -0.000066986    0.000241833   -0.000126620
     15        1           0.000155698    0.000256913    0.000006901
     16        1          -0.000154170   -0.000098739   -0.000615741
     17        1          -0.000730790   -0.000092273   -0.001497061
     18        1          -0.000227312    0.000475823   -0.000622756
 -------------------------------------------------------------------
 Cartesian Forces:  Max     0.038651978 RMS     0.006754914

 GradGradGradGradGradGradGradGradGradGradGradGradGradGradGradGradGradGrad
 Berny optimization.
 Using GEDIIS/GDIIS optimizer.
 FormGI is forming the generalized inverse of G from B-inverse, IUseBI=4.
 Internal  Forces:  Max     0.015340606 RMS     0.003769238
 Search for a local minimum.
 Step number   2 out of a maximum of   89
 All quantities printed in internal units (Hartrees-Bohrs-Radians)
 Mixed Optimization -- RFO/linear search
 Update second derivatives using D2CorX and points    2    1
 DE=  3.90D-04 DEPred=-4.13D-03 R=-9.44D-02
 Trust test=-9.44D-02 RLast= 4.26D-01 DXMaxT set to 1.50D-01
 ITU= -1  0
 Use linear search instead of GDIIS.
     Eigenvalues ---    0.00776   0.01356   0.01701   0.01832   0.02077
     Eigenvalues ---    0.02089   0.02096   0.02104   0.02122   0.02132
     Eigenvalues ---    0.02156   0.02183   0.06093   0.09909   0.10703
     Eigenvalues ---    0.14393   0.15999   0.16000   0.16000   0.16000
     Eigenvalues ---    0.16000   0.16125   0.21722   0.22534   0.23937
     Eigenvalues ---    0.24486   0.25000   0.25000   0.25000   0.26923
     Eigenvalues ---    0.33749   0.34210   0.34306   0.34741   0.35024
     Eigenvalues ---    0.35061   0.35262   0.37179   0.41335   0.41617
     Eigenvalues ---    0.42368   0.43932   0.45801   0.46372   0.46712
     Eigenvalues ---    0.50780   0.80561   0.87528
 RFO step:  Lambda=-8.39121749D-03 EMin= 7.76126147D-03
 Quartic linear search produced a step of -0.52147.
 Maximum step size (   0.150) exceeded in Quadratic search.
    -- Step size scaled by   0.706
 Iteration  1 RMS(Cart)=  0.05783096 RMS(Int)=  0.00670135
 Iteration  2 RMS(Cart)=  0.00723698 RMS(Int)=  0.00206337
 Iteration  3 RMS(Cart)=  0.00012393 RMS(Int)=  0.00206084
 Iteration  4 RMS(Cart)=  0.00000079 RMS(Int)=  0.00206084
 Variable       Old X    -DE/DX   Delta X   Delta X   Delta X     New X
                                 (Linear)    (Quad)   (Total)
    R1        2.56828  -0.00677   0.00821  -0.02462  -0.01641   2.55187
    R2        2.70158   0.00139  -0.00432   0.01180   0.00748   2.70906
    R3        2.31865  -0.00295   0.01235  -0.03201  -0.01966   2.29900
    R4        2.32061   0.00169   0.01070  -0.02618  -0.01548   2.30513
    R5        2.76348   0.00409  -0.01087   0.03037   0.01950   2.78298
    R6        2.64753   0.00678  -0.00106   0.00746   0.00639   2.65392
    R7        2.64191   0.00031   0.00160  -0.00374  -0.00214   2.63977
    R8        2.62829  -0.00023   0.01190  -0.02968  -0.01779   2.61051
    R9        2.63344  -0.00015   0.00670  -0.01689  -0.01018   2.62326
   R10        2.04361   0.00052   0.00434  -0.01031  -0.00597   2.03764
   R11        2.62495   0.00052   0.00267  -0.00633  -0.00367   2.62129
   R12        2.04619   0.00038   0.00497  -0.01199  -0.00702   2.03917
   R13        2.63555  -0.00086  -0.00077   0.00122   0.00045   2.63600
   R14        2.04830   0.00023   0.00434  -0.01056  -0.00622   2.04208
   R15        2.04770  -0.00013   0.00425  -0.01066  -0.00641   2.04129
   R16        2.05741  -0.00057   0.00559  -0.01438  -0.00879   2.04862
   R17        2.06427   0.00025   0.00206  -0.00487  -0.00281   2.06146
   R18        2.06451  -0.00006   0.00297  -0.00742  -0.00445   2.06006
    A1        2.06723  -0.00224  -0.02062   0.04804   0.02742   2.09465
    A2        2.15330   0.00309   0.01891  -0.02188  -0.01356   2.13975
    A3        2.05434   0.00383  -0.00067   0.02665   0.01544   2.06977
    A4        2.05081  -0.00068  -0.00637   0.03510   0.01819   2.06900
    A5        2.04388   0.00719   0.01394  -0.02544  -0.01152   2.03236
    A6        2.18267  -0.00526  -0.01293   0.02532   0.01238   2.19505
    A7        2.05664  -0.00193  -0.00101   0.00013  -0.00087   2.05576
    A8        2.08961   0.00365   0.00630  -0.01120  -0.00487   2.08473
    A9        2.06125  -0.00231  -0.00531   0.01000   0.00472   2.06597
   A10        2.13231  -0.00134  -0.00120   0.00132   0.00017   2.13248
   A11        2.09917   0.00144   0.00408  -0.00845  -0.00433   2.09483
   A12        2.10527  -0.00227   0.00891  -0.02540  -0.01650   2.08876
   A13        2.07868   0.00084  -0.01295   0.03375   0.02080   2.09948
   A14        2.08161   0.00183  -0.00109   0.00513   0.00406   2.08567
   A15        2.08859  -0.00159   0.01106  -0.02953  -0.01845   2.07014
   A16        2.11291  -0.00024  -0.00994   0.02420   0.01427   2.12718
   A17        2.11146   0.00083  -0.00398   0.01020   0.00625   2.11771
   A18        2.07714  -0.00044   0.00511  -0.01274  -0.00765   2.06949
   A19        2.09459  -0.00039  -0.00113   0.00255   0.00140   2.09598
   A20        2.08493  -0.00082   0.00278  -0.00858  -0.00578   2.07916
   A21        2.09343   0.00052   0.00255  -0.00512  -0.00258   2.09086
   A22        2.10479   0.00030  -0.00532   0.01363   0.00830   2.11310
   A23        1.83921   0.00036   0.02365  -0.05630  -0.03266   1.80655
   A24        1.95154  -0.00176  -0.00755   0.01471   0.00715   1.95869
   A25        1.94001  -0.00005   0.00034  -0.00120  -0.00086   1.93915
   A26        1.89724   0.00123  -0.00948   0.02596   0.01645   1.91369
   A27        1.90743   0.00074  -0.01380   0.03571   0.02191   1.92934
   A28        1.92569  -0.00039   0.00681  -0.01830  -0.01150   1.91419
    D1       -2.82103  -0.00140   0.04353  -0.10354  -0.06003  -2.88106
    D2        0.32260  -0.00222   0.04270  -0.11090  -0.06819   0.25441
    D3        2.93626   0.00042   0.00735  -0.00831  -0.00098   2.93528
    D4       -1.28874   0.00119   0.00602  -0.00323   0.00282  -1.28592
    D5        0.87190  -0.00064   0.00960  -0.01717  -0.00757   0.86432
    D6       -0.81424  -0.01386  -0.14311   0.03895  -0.10365  -0.91790
    D7        2.33420  -0.01347  -0.13058   0.01920  -0.11091   2.22329
    D8        2.09844   0.01495   0.00943   0.21727   0.22623   2.32467
    D9       -1.03630   0.01534   0.02195   0.19752   0.21897  -0.81734
   D10       -0.00715  -0.00005  -0.00447   0.00938   0.00492  -0.00223
   D11        3.12731  -0.00045  -0.01759   0.02999   0.01248   3.13979
   D12        3.13256   0.00071  -0.00371   0.01622   0.01242  -3.13820
   D13       -0.01617   0.00030  -0.01683   0.03684   0.01999   0.00382
   D14        3.13913   0.00050   0.02431  -0.04371  -0.01938   3.11976
   D15        0.01087   0.00023   0.01872  -0.03544  -0.01666  -0.00579
   D16       -0.00041  -0.00033   0.02348  -0.05109  -0.02763  -0.02803
   D17       -3.12867  -0.00060   0.01788  -0.04282  -0.02491   3.12961
   D18       -3.12264  -0.00050  -0.01572   0.02571   0.00995  -3.11270
   D19        0.00612  -0.00027  -0.00585   0.00822   0.00230   0.00841
   D20        0.02598  -0.00012  -0.00301   0.00550   0.00250   0.02847
   D21       -3.12845   0.00010   0.00686  -0.01199  -0.00515  -3.13360
   D22        0.00693   0.00025  -0.01062   0.02424   0.01366   0.02058
   D23       -3.13467   0.00011  -0.01248   0.02647   0.01400  -3.12067
   D24        3.13539   0.00049  -0.00508   0.01566   0.01064  -3.13716
   D25       -0.00621   0.00035  -0.00694   0.01788   0.01098   0.00478
   D26       -0.01880   0.00000   0.01645  -0.03358  -0.01715  -0.03595
   D27        3.13062  -0.00006   0.01059  -0.02242  -0.01181   3.11881
   D28        3.13581  -0.00022   0.00652  -0.01543  -0.00899   3.12682
   D29        0.00204  -0.00028   0.00066  -0.00428  -0.00365  -0.00161
   D30        0.00280  -0.00009  -0.00984   0.01903   0.00920   0.01200
   D31        3.13651  -0.00003  -0.00395   0.00771   0.00373   3.14025
   D32       -3.13879   0.00005  -0.00797   0.01678   0.00885  -3.12994
   D33       -0.00508   0.00011  -0.00208   0.00546   0.00338  -0.00169
         Item               Value     Threshold  Converged?
 Maximum Force            0.015341     0.000450     NO 
 RMS     Force            0.003769     0.000300     NO 
 Maximum Displacement     0.318164     0.001800     NO 
 RMS     Displacement     0.060993     0.001200     NO 
 Predicted change in Energy=-6.240343D-03
 GradGradGradGradGradGradGradGradGradGradGradGradGradGradGradGradGradGrad

                          Input orientation:                          
 ---------------------------------------------------------------------
 Center     Atomic      Atomic             Coordinates (Angstroms)
 Number     Number       Type             X           Y           Z
 ---------------------------------------------------------------------
      1          8           0        0.965407   -0.329247    0.102562
      2          8           0        2.850856   -1.894915   -1.135952
      3          8           0        1.674625   -3.644855   -1.484126
      4          7           0        1.798970   -2.432764   -1.426319
      5          6           0        0.268297   -0.513958   -1.039139
      6          6           0        0.669095   -1.588448   -1.849793
      7          6           0       -0.809897    0.261594   -1.472000
      8          6           0        0.037671   -1.886323   -3.041807
      9          6           0       -1.425874   -0.019949   -2.683744
     10          6           0       -1.006841   -1.085731   -3.480174
     11          6           0        0.442493    0.519575    1.132702
     12          1           0       -1.150225    1.087288   -0.867782
     13          1           0        0.388598   -2.730095   -3.615668
     14          1           0       -2.245171    0.607150   -3.005059
     15          1           0       -1.490059   -1.301720   -4.421817
     16          1           0        1.082309    0.310161    1.982415
     17          1           0        0.513263    1.576465    0.871959
     18          1           0       -0.592827    0.266600    1.361873
 ---------------------------------------------------------------------
                    Distance matrix (angstroms):
                    1          2          3          4          5
     1  O    0.000000
     2  O    2.745933   0.000000
     3  O    3.743505   2.137062   0.000000
     4  N    2.730767   1.216576   1.219823   0.000000
     5  C    1.350392   2.930192   3.460967   2.484892   0.000000
     6  C    2.342024   2.315939   2.318106   1.472691   1.404396
     7  C    2.445413   4.261991   4.629616   3.750712   1.396908
     8  C    3.629357   3.397994   2.863289   2.451648   2.438699
     9  C    3.684751   4.919509   4.918549   4.219291   2.412258
    10  C    4.159090   4.586063   4.209938   3.728994   2.812749
    11  C    1.433571   4.095945   5.070347   4.135810   2.411519
    12  H    2.724709   4.997409   5.545524   4.626066   2.146056
    13  H    4.463409   3.592942   2.652192   2.621223   3.400624
    14  H    4.565299   5.976903   5.979765   5.299866   3.382195
    15  H    5.238800   5.476525   4.912793   4.590205   3.892930
    16  H    1.989059   4.208839   5.292438   4.433588   3.235981
    17  H    2.104315   4.641824   5.844834   4.796774   2.842915
    18  H    2.090213   4.771816   5.342334   4.558648   2.667520
                    6          7          8          9         10
     6  C    0.000000
     7  C    2.398499   0.000000
     8  C    1.381421   2.792169   0.000000
     9  C    2.746736   1.388170   2.398650   0.000000
    10  C    2.391574   2.426280   1.387125   1.394912   0.000000
    11  C    3.659287   2.901639   4.835157   4.283356   5.094723
    12  H    3.381395   1.078273   3.870380   2.144685   3.401053
    13  H    2.121404   3.870647   1.079083   3.392003   2.160912
    14  H    3.827301   2.128306   3.380846   1.080622   2.150591
    15  H    3.370381   3.407050   2.140128   2.160545   1.080205
    16  H    4.296659   3.939008   5.581990   5.307824   6.012731
    17  H    4.177187   2.995627   5.247347   4.353368   5.323445
    18  H    3.917709   2.842179   4.942165   4.140422   5.044366
                   11         12         13         14         15
    11  C    0.000000
    12  H    2.619349   0.000000
    13  H    5.754153   4.948865   0.000000
    14  H    4.934802   2.448956   4.294973   0.000000
    15  H    6.156667   4.295813   2.493889   2.494230   0.000000
    16  H    1.084081   3.702939   6.408036   6.002934   7.087272
    17  H    1.090877   2.456254   6.220997   4.855903   6.349906
    18  H    1.090139   2.440406   5.892308   4.681485   6.059350
                   16         17         18
    16  H    0.000000
    17  H    1.777766   0.000000
    18  H    1.786911   1.783030   0.000000
 Symmetry turned off by external request.
 Stoichiometry    C7H7NO3
 Framework group  C1[X(C7H7NO3)]
 Deg. of freedom    48
 Full point group                 C1      NOp   1
 Rotational constants (GHZ):           1.3936221           1.1887150           0.6840133
 Standard basis: 6-311G(d) (5D, 7F)
   219 basis functions,   387 primitive gaussians,   230 cartesian basis functions
    40 alpha electrons       40 beta electrons
       nuclear repulsion energy       603.4892283364 Hartrees.
 NAtoms=   18 NActive=   18 NUniq=   18 SFac= 1.00D+00 NAtFMM=   60 NAOKFM=F Big=F
 Integral buffers will be    131072 words long.
 Raffenetti 2 integral format.
 Two-electron integral symmetry is turned off.
 ------------------------------------------------------------------------------
 Polarizable Continuum Model (PCM)
 =================================
 Model                : PCM.
 Atomic radii         : UFF (Universal Force Field).
 Polarization charges : Total charges.
 Charge compensation  : None.
 Solution method      : On-the-fly selection.
 Cavity type          : Scaled VdW (van der Waals Surface) (Alpha=1.100).
 Cavity algorithm     : GePol (No added spheres)
                        Default sphere list used, NSphG=   18.
                        Lebedev-Laikov grids with approx.  5.0 points / Ang**2.
                        Smoothing algorithm: York/Karplus (Gamma=1.0000).
                        Polarization charges: spherical gaussians, with
                                              point-specific exponents (IZeta= 3).
                        Self-potential: point-specific (ISelfS= 7).
                        Self-field    : sphere-specific E.n sum rule (ISelfD= 2).
 1st derivatives      : Analytical E(r).r(x)/FMM algorithm (CHGder, D1EAlg=3).
                        Cavity 1st derivative terms included.
 Solvent              : Water, Eps=  78.355300 Eps(inf)=   1.777849
 ------------------------------------------------------------------------------
 Spheres list:
 ISph  on   Nord     Re0    Alpha      Xe            Ye            Ze
    1   O      1    1.7500  1.100      0.965407     -0.329247      0.102562
    2   O      2    1.7500  1.100      2.850856     -1.894915     -1.135952
    3   O      3    1.7500  1.100      1.674625     -3.644855     -1.484126
    4   N      4    1.8300  1.100      1.798970     -2.432764     -1.426319
    5   C      5    1.9255  1.100      0.268297     -0.513958     -1.039139
    6   C      6    1.9255  1.100      0.669095     -1.588448     -1.849793
    7   C      7    1.9255  1.100     -0.809897      0.261594     -1.472000
    8   C      8    1.9255  1.100      0.037671     -1.886323     -3.041807
    9   C      9    1.9255  1.100     -1.425874     -0.019949     -2.683744
   10   C     10    1.9255  1.100     -1.006841     -1.085731     -3.480174
   11   C     11    1.9255  1.100      0.442493      0.519575      1.132702
   12   H     12    1.4430  1.100     -1.150225      1.087288     -0.867782
   13   H     13    1.4430  1.100      0.388598     -2.730095     -3.615668
   14   H     14    1.4430  1.100     -2.245171      0.607150     -3.005059
   15   H     15    1.4430  1.100     -1.490059     -1.301720     -4.421817
   16   H     16    1.4430  1.100      1.082309      0.310161      1.982415
   17   H     17    1.4430  1.100      0.513263      1.576465      0.871959
   18   H     18    1.4430  1.100     -0.592827      0.266600      1.361873
 ------------------------------------------------------------------------------
 One-electron integrals computed using PRISM.
 NBasis=   219 RedAO= T EigKep=  1.94D-04  NBF=   219
 NBsUse=   219 1.00D-06 EigRej= -1.00D+00 NBFU=   219
 Lowest energy guess from the checkpoint file:  "ground_state_opt.chk"
 B after Tr=    -0.103815   -0.047970    0.014752
         Rot=    0.999954   -0.004864    0.007071   -0.004229 Ang=  -1.10 deg.
 B after Tr=    -0.021227   -0.045441    0.008772
         Rot=    0.999986   -0.004774   -0.000300   -0.002347 Ang=  -0.61 deg.
 Keep R1 ints in memory in canonical form, NReq=296340445.
 Requested convergence on RMS density matrix=1.00D-08 within 128 cycles.
 Requested convergence on MAX density matrix=1.00D-06.
 Requested convergence on             energy=1.00D-06.
 No special actions if energy rises.
 Inv3:  Mode=1 IEnd=     7347675.
 Iteration    1 A*A^-1 deviation from unit magnitude is 5.33D-15 for   1559.
 Iteration    1 A*A^-1 deviation from orthogonality  is 1.75D-15 for   1563    320.
 Iteration    1 A^-1*A deviation from unit magnitude is 5.55D-15 for   1559.
 Iteration    1 A^-1*A deviation from orthogonality  is 1.70D-15 for   1064    108.
 Error on total polarization charges =  0.00847
 SCF Done:  E(RB3LYP) =  -551.405501072     A.U. after   12 cycles
            NFock= 12  Conv=0.93D-08     -V/T= 2.0030
 D1PCM: PCM CHGder 1st derivatives, ID1Alg=3 FixD1E=F DoIter=F DoCFld=F I1PDM=0.
 Calling FoFJK, ICntrl=      2127 FMM=F ISym2X=0 I1Cent= 0 IOpClX= 0 NMat=1 NMatS=1 NMatT=0.
 -------------------------------------------------------------------
 Center     Atomic                   Forces (Hartrees/Bohr)
 Number     Number              X              Y              Z
 -------------------------------------------------------------------
      1        8          -0.004095993    0.000724773   -0.000877495
      2        8           0.006435503    0.011614739    0.006743119
      3        8          -0.010659241   -0.010749011   -0.000327640
      4        7           0.004725167    0.000188301   -0.012109441
      5        6           0.005650786    0.001103215    0.003897930
      6        6           0.002376438   -0.000599928    0.007559420
      7        6           0.003391721   -0.000853683    0.003011267
      8        6           0.000195077   -0.002335744   -0.002169039
      9        6          -0.001058515   -0.001500948   -0.002968235
     10        6          -0.001566237    0.001081871    0.001182209
     11        6           0.000994273   -0.001607999   -0.002067452
     12        1          -0.001454952    0.002431257    0.001187605
     13        1          -0.000395984   -0.002391071   -0.002383873
     14        1          -0.002193280    0.001112535   -0.001356122
     15        1          -0.001267495    0.000338954   -0.001758833
     16        1          -0.000873687    0.001769121    0.003760622
     17        1           0.000750122    0.000609946   -0.002315838
     18        1          -0.000953703   -0.000936330    0.000991795
 -------------------------------------------------------------------
 Cartesian Forces:  Max     0.012109441 RMS     0.004006884

 GradGradGradGradGradGradGradGradGradGradGradGradGradGradGradGradGradGrad
 Berny optimization.
 Using GEDIIS/GDIIS optimizer.
 FormGI is forming the generalized inverse of G from B-inverse, IUseBI=4.
 Internal  Forces:  Max     0.012309389 RMS     0.003635755
 Search for a local minimum.
 Step number   3 out of a maximum of   89
 All quantities printed in internal units (Hartrees-Bohrs-Radians)
 Mixed Optimization -- RFO/linear search
 Update second derivatives using D2CorX and points    2    1    3
 DE= -2.59D-03 DEPred=-6.24D-03 R= 4.15D-01
 Trust test= 4.15D-01 RLast= 4.89D-01 DXMaxT set to 1.50D-01
 ITU=  0 -1  0
 Use linear search instead of GDIIS.
     Eigenvalues ---    0.00931   0.01363   0.01764   0.01917   0.02077
     Eigenvalues ---    0.02091   0.02100   0.02120   0.02130   0.02137
     Eigenvalues ---    0.02177   0.02184   0.09502   0.10131   0.10836
     Eigenvalues ---    0.15091   0.15997   0.15999   0.16000   0.16000
     Eigenvalues ---    0.16001   0.16332   0.21838   0.22523   0.24456
     Eigenvalues ---    0.24642   0.25000   0.25000   0.25446   0.30009
     Eigenvalues ---    0.34153   0.34220   0.34319   0.35022   0.35035
     Eigenvalues ---    0.35147   0.35533   0.36795   0.41336   0.41646
     Eigenvalues ---    0.42165   0.44537   0.45923   0.46492   0.47299
     Eigenvalues ---    0.50322   0.86022   0.87902
 RFO step:  Lambda=-1.83536683D-03 EMin= 9.30787630D-03
 Quartic linear search produced a step of -0.30250.
 Iteration  1 RMS(Cart)=  0.04679287 RMS(Int)=  0.00137562
 Iteration  2 RMS(Cart)=  0.00168170 RMS(Int)=  0.00014982
 Iteration  3 RMS(Cart)=  0.00000333 RMS(Int)=  0.00014980
 Iteration  4 RMS(Cart)=  0.00000000 RMS(Int)=  0.00014980
 Variable       Old X    -DE/DX   Delta X   Delta X   Delta X     New X
                                 (Linear)    (Quad)   (Total)
    R1        2.55187  -0.00251   0.00972  -0.01050  -0.00078   2.55109
    R2        2.70906   0.00020  -0.00477   0.00387  -0.00090   2.70815
    R3        2.29900   0.01231   0.01311  -0.00174   0.01137   2.31036
    R4        2.30513   0.01178   0.01089  -0.00008   0.01081   2.31594
    R5        2.78298  -0.00186  -0.01220   0.00689  -0.00532   2.77767
    R6        2.65392   0.00475  -0.00255   0.00890   0.00637   2.66029
    R7        2.63977   0.00186   0.00157   0.00112   0.00273   2.64250
    R8        2.61051   0.00711   0.01228   0.00007   0.01234   2.62285
    R9        2.62326   0.00471   0.00697   0.00039   0.00737   2.63063
   R10        2.03764   0.00299   0.00432   0.00161   0.00593   2.04357
   R11        2.62129   0.00300   0.00266   0.00166   0.00428   2.62557
   R12        2.03917   0.00301   0.00501   0.00116   0.00616   2.04533
   R13        2.63600  -0.00073  -0.00059  -0.00083  -0.00144   2.63457
   R14        2.04208   0.00271   0.00440   0.00110   0.00550   2.04758
   R15        2.04129   0.00203   0.00440  -0.00003   0.00437   2.04566
   R16        2.04862   0.00209   0.00590  -0.00104   0.00486   2.05348
   R17        2.06146   0.00119   0.00204   0.00048   0.00253   2.06399
   R18        2.06006   0.00133   0.00307  -0.00009   0.00298   2.06304
    A1        2.09465  -0.00783  -0.02026  -0.00305  -0.02331   2.07134
    A2        2.13975   0.01199   0.01507   0.01647   0.03092   2.17067
    A3        2.06977  -0.00293  -0.00506  -0.00050  -0.00617   2.06360
    A4        2.06900  -0.00839  -0.00920  -0.01077  -0.02058   2.04841
    A5        2.03236   0.00857   0.01157   0.01244   0.02389   2.05625
    A6        2.19505  -0.00695  -0.01124  -0.00881  -0.02016   2.17488
    A7        2.05576  -0.00162  -0.00032  -0.00370  -0.00386   2.05190
    A8        2.08473   0.00465   0.00513   0.00718   0.01228   2.09702
    A9        2.06597  -0.00398  -0.00451  -0.00647  -0.01100   2.05497
   A10        2.13248  -0.00067  -0.00074  -0.00071  -0.00128   2.13120
   A11        2.09483   0.00190   0.00368   0.00181   0.00566   2.10049
   A12        2.08876  -0.00022   0.01016  -0.00807   0.00199   2.09075
   A13        2.09948  -0.00168  -0.01380   0.00636  -0.00754   2.09194
   A14        2.08567   0.00001  -0.00186   0.00245   0.00068   2.08635
   A15        2.07014   0.00152   0.01200  -0.00465   0.00734   2.07748
   A16        2.12718  -0.00152  -0.01008   0.00220  -0.00789   2.11929
   A17        2.11771   0.00001  -0.00420   0.00214  -0.00194   2.11577
   A18        2.06949   0.00073   0.00528  -0.00097   0.00425   2.07374
   A19        2.09598  -0.00074  -0.00108  -0.00117  -0.00231   2.09367
   A20        2.07916   0.00039   0.00336  -0.00248   0.00095   2.08010
   A21        2.09086   0.00062   0.00226   0.00113   0.00337   2.09423
   A22        2.11310  -0.00101  -0.00560   0.00135  -0.00427   2.10882
   A23        1.80655   0.00630   0.02360   0.00542   0.02902   1.83557
   A24        1.95869  -0.00423  -0.00654  -0.01110  -0.01768   1.94101
   A25        1.93915  -0.00027   0.00046  -0.00213  -0.00171   1.93744
   A26        1.91369  -0.00052  -0.01048   0.00821  -0.00226   1.91143
   A27        1.92934  -0.00202  -0.01463   0.00618  -0.00845   1.92089
   A28        1.91419   0.00089   0.00743  -0.00549   0.00186   1.91606
    D1       -2.88106  -0.00124   0.04341  -0.08059  -0.03720  -2.91826
    D2        0.25441  -0.00164   0.04540  -0.09582  -0.05041   0.20400
    D3        2.93528   0.00062   0.00456   0.01707   0.02163   2.95691
    D4       -1.28592   0.00165   0.00264   0.02457   0.02715  -1.25877
    D5        0.86432  -0.00048   0.00786   0.00775   0.01567   0.87999
    D6       -0.91790   0.00478  -0.05166   0.15139   0.09973  -0.81817
    D7        2.22329   0.00490  -0.04220   0.14570   0.10351   2.32680
    D8        2.32467  -0.00312  -0.06296   0.09436   0.03138   2.35605
    D9       -0.81734  -0.00301  -0.05350   0.08867   0.03516  -0.78217
   D10       -0.00223  -0.00066  -0.00408  -0.01049  -0.01484  -0.01707
   D11        3.13979  -0.00077  -0.01398  -0.00458  -0.01879   3.12100
   D12       -3.13820  -0.00027  -0.00591   0.00350  -0.00251  -3.14071
   D13        0.00382  -0.00038  -0.01581   0.00942  -0.00646  -0.00264
   D14        3.11976   0.00081   0.01996   0.00059   0.02025   3.14000
   D15       -0.00579   0.00040   0.01590  -0.00633   0.00942   0.00363
   D16       -0.02803   0.00044   0.02197  -0.01477   0.00716  -0.02088
   D17        3.12961   0.00003   0.01791  -0.02169  -0.00367   3.12594
   D18       -3.11270  -0.00012  -0.01213   0.00848  -0.00381  -3.11650
   D19        0.00841   0.00022  -0.00409   0.00870   0.00440   0.01282
   D20        0.02847  -0.00000  -0.00250   0.00263   0.00006   0.02853
   D21       -3.13360   0.00033   0.00554   0.00285   0.00827  -3.12533
   D22        0.02058  -0.00013  -0.01029   0.00860  -0.00168   0.01890
   D23       -3.12067  -0.00026  -0.01147   0.00612  -0.00532  -3.12599
   D24       -3.13716   0.00030  -0.00616   0.01543   0.00924  -3.12792
   D25        0.00478   0.00016  -0.00735   0.01295   0.00559   0.01037
   D26       -0.03595   0.00028   0.01473  -0.00920   0.00554  -0.03041
[...]
 ! A23   A(1,11,16)            105.1759         -DE/DX =    0.0                 !
 ! A24   A(1,11,17)            111.0873         -DE/DX =    0.0                 !
 ! A25   A(1,11,18)            111.1088         -DE/DX =    0.0                 !
 ! A26   A(16,11,17)           109.5754         -DE/DX =    0.0                 !
 ! A27   A(16,11,18)           109.7027         -DE/DX =    0.0                 !
 ! A28   A(17,11,18)           110.0744         -DE/DX =    0.0                 !
 ! D1    D(11,1,5,6)          -175.7383         -DE/DX =    0.0                 !
 ! D2    D(11,1,5,7)             2.2246         -DE/DX =    0.0                 !
 ! D3    D(5,1,11,16)          178.4613         -DE/DX =    0.0                 !
 ! D4    D(5,1,11,17)          -63.0709         -DE/DX =    0.0                 !
 ! D5    D(5,1,11,18)           59.8308         -DE/DX =    0.0                 !
 ! D6    D(2,4,6,5)            -30.5812         -DE/DX =    0.0                 !
 ! D7    D(2,4,6,8)            149.3817         -DE/DX =    0.0                 !
 ! D8    D(3,4,6,5)            150.767          -DE/DX =    0.0                 !
 ! D9    D(3,4,6,8)            -29.2701         -DE/DX =    0.0                 !
 ! D10   D(1,5,6,4)             -2.4782         -DE/DX =    0.0                 !
 ! D11   D(1,5,6,8)            177.5606         -DE/DX =    0.0                 !
 ! D12   D(7,5,6,4)            179.4251         -DE/DX =    0.0                 !
 ! D13   D(7,5,6,8)             -0.5361         -DE/DX =    0.0                 !
 ! D14   D(1,5,7,9)           -178.4924         -DE/DX =    0.0                 !
 ! D15   D(1,5,7,12)             1.4267         -DE/DX =    0.0                 !
 ! D16   D(6,5,7,9)             -0.4971         -DE/DX =    0.0                 !
 ! D17   D(6,5,7,12)           179.422          -DE/DX =    0.0                 !
 ! D18   D(4,6,8,10)          -178.6647         -DE/DX =    0.0                 !
 ! D19   D(4,6,8,13)             0.822          -DE/DX =    0.0                 !
 ! D20   D(5,6,8,10)             1.2984         -DE/DX =    0.0                 !
 ! D21   D(5,6,8,13)          -179.2149         -DE/DX =    0.0                 !
 ! D22   D(5,7,9,10)             0.7906         -DE/DX =    0.0                 !
 ! D23   D(5,7,9,14)          -179.4487         -DE/DX =    0.0                 !
 ! D24   D(12,7,9,10)         -179.1291         -DE/DX =    0.0                 !
 ! D25   D(12,7,9,14)            0.6316         -DE/DX =    0.0                 !
 ! D26   D(6,8,10,9)            -0.9965         -DE/DX =    0.0                 !
 ! D27   D(6,8,10,15)          178.9274         -DE/DX =    0.0                 !
 ! D28   D(13,8,10,9)          179.5313         -DE/DX =    0.0                 !
 ! D29   D(13,8,10,15)          -0.5448         -DE/DX =    0.0                 !
 ! D30   D(7,9,10,8)            -0.0317         -DE/DX =    0.0                 !
 ! D31   D(7,9,10,15)         -179.9551         -DE/DX =    0.0                 !
 ! D32   D(14,9,10,8)         -179.7897         -DE/DX =    0.0                 !
 ! D33   D(14,9,10,15)           0.287          -DE/DX =    0.0                 !
 --------------------------------------------------------------------------------
 GradGradGradGradGradGradGradGradGradGradGradGradGradGradGradGradGradGrad

                          Input orientation:                          
 ---------------------------------------------------------------------
 Center     Atomic      Atomic             Coordinates (Angstroms)
 Number     Number       Type             X           Y           Z
 ---------------------------------------------------------------------
      1          8           0        0.904043   -0.405925    0.194949
      2          8           0        2.738253   -2.045871   -0.816433
      3          8           0        1.796614   -3.648821   -1.923829
      4          7           0        1.820781   -2.497315   -1.490527
      5          6           0        0.280337   -0.573600   -0.983371
      6          6           0        0.696528   -1.624268   -1.835061
      7          6           0       -0.799695    0.211412   -1.413591
      8          6           0        0.052991   -1.876541   -3.046284
      9          6           0       -1.421738   -0.034093   -2.632731
     10          6           0       -1.002446   -1.077636   -3.457775
     11          6           0        0.425624    0.597170    1.099187
     12          1           0       -1.158908    1.019718   -0.791823
     13          1           0        0.402936   -2.700319   -3.653958
     14          1           0       -2.247967    0.599485   -2.936129
     15          1           0       -1.489284   -1.264991   -4.407015
     16          1           0        1.064804    0.519155    1.974713
     17          1           0        0.519984    1.594914    0.664940
     18          1           0       -0.612165    0.408356    1.382868
 ---------------------------------------------------------------------
                    Distance matrix (angstroms):
                    1          2          3          4          5
     1  O    0.000000
     2  O    2.660196   0.000000
     3  O    3.975208   2.163899   0.000000
     4  N    2.838160   1.224728   1.230569   0.000000
     5  C    1.343712   2.869982   3.555354   2.516119   0.000000
     6  C    2.376628   2.320343   2.305836   1.464534   1.415095
     7  C    2.423061   4.238985   4.680017   3.769617   1.402783
     8  C    3.659589   3.494501   2.727838   2.435328   2.450500
     9  C    3.680121   4.965049   4.891481   4.229187   2.430744
    10  C    4.174721   4.680491   4.098624   3.722387   2.832360
    11  C    1.432735   4.000440   5.389497   4.269534   2.393503
    12  H    2.694799   4.958458   5.640195   4.662216   2.155639
    13  H    4.508818   3.732767   2.415644   2.594596   3.416138
    14  H    4.555180   6.029379   5.952435   5.313629   3.403192
    15  H    5.257764   5.601260   4.758779   4.580508   3.915472
    16  H    2.012256   4.143704   5.753799   4.656015   3.249579
    17  H    2.090873   4.513368   5.985671   4.804627   2.734376
    18  H    2.091193   4.699516   5.761696   4.755895   2.712910
                    6          7          8          9         10
     6  C    0.000000
     7  C    2.405419   0.000000
     8  C    1.394576   2.784297   0.000000
     9  C    2.766222   1.390509   2.395927   0.000000
    10  C    2.412161   2.425169   1.386189   1.394807   0.000000
    11  C    3.690256   2.822103   4.841801   4.211705   5.060659
    12  H    3.394356   1.081198   3.865179   2.137415   3.395685
    13  H    2.133652   3.865714   1.081823   3.388378   2.155618
    14  H    3.850647   2.136871   3.381900   1.084493   2.153178
    15  H    3.394378   3.408209   2.145738   2.160498   1.083129
    16  H    4.386829   3.879647   5.654515   5.264743   6.027868
    17  H    4.079743   2.824166   5.103162   4.159156   5.143646
    18  H    4.024835   2.809650   5.027979   4.120219   5.078614
                   11         12         13         14         15
    11  C    0.000000
    12  H    2.503040   0.000000
    13  H    5.785010   4.946701   0.000000
    14  H    4.840648   2.441454   4.293166   0.000000
    15  H    6.119867   4.289365   2.491538   2.493065   0.000000
    16  H    1.086822   3.584575   6.518053   5.924295   7.101619
    17  H    1.092230   2.296015   6.092258   4.649745   6.159621
    18  H    1.092305   2.324214   6.005323   4.622350   6.090334
                   16         17         18
    16  H    0.000000
    17  H    1.780335   0.000000
    18  H    1.781791   1.790279   0.000000
 Symmetry turned off by external request.
 Stoichiometry    C7H7NO3
 Framework group  C1[X(C7H7NO3)]
 Deg. of freedom    48
 Full point group                 C1      NOp   1
 Rotational constants (GHZ):           1.4008922           1.1938708           0.6634597

 **********************************************************************

            Population analysis using the SCF Density.

 **********************************************************************

 Alpha  occ. eigenvalues --  -19.17162 -19.15653 -19.15506 -14.55702 -10.27083
 Alpha  occ. eigenvalues --  -10.23957 -10.22826 -10.20238 -10.19871 -10.19212
 Alpha  occ. eigenvalues --  -10.18748  -1.23927  -1.09341  -1.06225  -0.89125
 Alpha  occ. eigenvalues --   -0.81555  -0.77763  -0.73069  -0.69836  -0.62570
 Alpha  occ. eigenvalues --   -0.60736  -0.56883  -0.54561  -0.53801  -0.52597
 Alpha  occ. eigenvalues --   -0.49780  -0.48730  -0.48446  -0.46344  -0.43543
 Alpha  occ. eigenvalues --   -0.40468  -0.40235  -0.38519  -0.35821  -0.34698
 Alpha  occ. eigenvalues --   -0.32163  -0.31863  -0.30538  -0.27977  -0.24955
 Alpha virt. eigenvalues --   -0.09368  -0.02105  -0.01059   0.04391   0.06084
 Alpha virt. eigenvalues --    0.08532   0.08828   0.11058   0.11837   0.12119
 Alpha virt. eigenvalues --    0.13743   0.13999   0.16107   0.21924   0.24610
 Alpha virt. eigenvalues --    0.25828   0.26668   0.27170   0.30969   0.31425
 Alpha virt. eigenvalues --    0.33880   0.35063   0.36948   0.37062   0.37944
 Alpha virt. eigenvalues --    0.39599   0.40158   0.42034   0.42648   0.43745
 Alpha virt. eigenvalues --    0.44467   0.46762   0.47638   0.49776   0.50761
 Alpha virt. eigenvalues --    0.52370   0.53769   0.56229   0.57809   0.59031
 Alpha virt. eigenvalues --    0.59785   0.61131   0.62017   0.63323   0.64738
 Alpha virt. eigenvalues --    0.65559   0.65898   0.68068   0.70174   0.73621
 Alpha virt. eigenvalues --    0.74837   0.75827   0.76828   0.77496   0.80476
 Alpha virt. eigenvalues --    0.82029   0.82348   0.82460   0.86391   0.87174
 Alpha virt. eigenvalues --    0.89243   0.93877   0.96238   0.96973   0.97791
 Alpha virt. eigenvalues --    0.99744   1.01602   1.03220   1.08502   1.16026
 Alpha virt. eigenvalues --    1.17016   1.17563   1.19942   1.20859   1.23210
 Alpha virt. eigenvalues --    1.27458   1.31512   1.33400   1.40037   1.42206
 Alpha virt. eigenvalues --    1.47033   1.48058   1.49775   1.50138   1.51505
 Alpha virt. eigenvalues --    1.56310   1.57781   1.63774   1.65807   1.69572
 Alpha virt. eigenvalues --    1.69885   1.71938   1.73707   1.76204   1.78679
 Alpha virt. eigenvalues --    1.81861   1.86997   1.88101   1.89630   1.91598
 Alpha virt. eigenvalues --    1.92545   2.02629   2.06199   2.15557   2.19591
 Alpha virt. eigenvalues --    2.19879   2.22625   2.25514   2.27241   2.30078
 Alpha virt. eigenvalues --    2.30476   2.33042   2.34819   2.39362   2.40745
 Alpha virt. eigenvalues --    2.49225   2.50605   2.53769   2.63967   2.65840
 Alpha virt. eigenvalues --    2.67470   2.75759   2.78576   2.79115   2.80620
 Alpha virt. eigenvalues --    2.81812   2.82236   2.83840   2.87620   2.92874
 Alpha virt. eigenvalues --    2.99896   3.01075   3.06649   3.11731   3.12175
 Alpha virt. eigenvalues --    3.15358   3.18701   3.20934   3.23859   3.25359
 Alpha virt. eigenvalues --    3.27711   3.28671   3.32698   3.34940   3.36498
 Alpha virt. eigenvalues --    3.44200   3.48209   3.53182   3.57882   3.64265
 Alpha virt. eigenvalues --    3.71290   3.73156   3.80426   3.91082   3.97168
 Alpha virt. eigenvalues --    4.06576   4.38130   4.56694   4.76989   4.83806
 Alpha virt. eigenvalues --    4.84194   4.85246   4.90454   4.95326   5.23946
 Alpha virt. eigenvalues --    5.52066   5.69733   5.99754  23.20658  23.42027
 Alpha virt. eigenvalues --   23.78091  23.80853  23.97494  24.02431  24.12020
 Alpha virt. eigenvalues --   35.35481  49.79824  49.89523  49.92903
          Condensed to atoms (all electrons):
               1          2          3          4          5          6
     1  O    7.888434  -0.008431  -0.000045  -0.000028   0.430443  -0.075971
     2  O   -0.008431   8.189532  -0.115237   0.316091   0.008397  -0.106813
     3  O   -0.000045  -0.115237   8.193529   0.318013   0.004946  -0.135482
     4  N   -0.000028   0.316091   0.318013   6.081937  -0.031474   0.184062
     5  C    0.430443   0.008397   0.004946  -0.031474   4.718652   0.409449
     6  C   -0.075971  -0.106813  -0.135482   0.184062   0.409449   5.313715
     7  C   -0.085691   0.000045  -0.000283   0.005807   0.393748  -0.059111
     8  C    0.002952   0.006312   0.017511  -0.029476  -0.046118   0.426103
     9  C    0.005780   0.000033   0.000082  -0.000470   0.002507  -0.041783
    10  C   -0.000348  -0.000165   0.000899   0.005278  -0.036841  -0.045272
    11  C    0.258409   0.000299   0.000005  -0.000277  -0.091575   0.008603
    12  H   -0.006824   0.000005   0.000003  -0.000089  -0.042801   0.001461
    13  H   -0.000065   0.000826   0.020826  -0.009607   0.007490  -0.054677
    14  H   -0.000077  -0.000000   0.000001   0.000009   0.004929  -0.000546
    15  H    0.000003   0.000003  -0.000065  -0.000122  -0.000899   0.007967
    16  H   -0.022182   0.000325   0.000001   0.000000   0.003282  -0.000289
    17  H   -0.030353  -0.000053   0.000000   0.000016  -0.006796  -0.001012
    18  H   -0.030709  -0.000080  -0.000002   0.000011  -0.006374  -0.000342
               7          8          9         10         11         12
     1  O   -0.085691   0.002952   0.005780  -0.000348   0.258409  -0.006824
     2  O    0.000045   0.006312   0.000033  -0.000165   0.000299   0.000005
     3  O   -0.000283   0.017511   0.000082   0.000899   0.000005   0.000003
     4  N    0.005807  -0.029476  -0.000470   0.005278  -0.000277  -0.000089
     5  C    0.393748  -0.046118   0.002507  -0.036841  -0.091575  -0.042801
     6  C   -0.059111   0.426103  -0.041783  -0.045272   0.008603   0.001461
     7  C    5.327461  -0.058573   0.454394  -0.038949  -0.012623   0.392938
     8  C   -0.058573   5.061160  -0.039619   0.500998  -0.000143   0.000166
     9  C    0.454394  -0.039619   4.953746   0.511383  -0.000554  -0.030558
    10  C   -0.038949   0.500998   0.511383   4.985339   0.000080   0.004952
    11  C   -0.012623  -0.000143  -0.000554   0.000080   5.180524   0.004852
    12  H    0.392938   0.000166  -0.030558   0.004952   0.004852   0.426203
    13  H   -0.001537   0.388225   0.006846  -0.029469   0.000016   0.000035
    14  H   -0.040057   0.006727   0.397556  -0.039870  -0.000062  -0.005169
    15  H    0.007527  -0.042240  -0.043192   0.400321  -0.000001  -0.000267
    16  H    0.001506   0.000023   0.000026  -0.000000   0.384165   0.000223
    17  H    0.003347  -0.000067  -0.000300  -0.000009   0.375640   0.000096
    18  H    0.004404  -0.000099  -0.000522  -0.000014   0.373120  -0.000280
              13         14         15         16         17         18
     1  O   -0.000065  -0.000077   0.000003  -0.022182  -0.030353  -0.030709
     2  O    0.000826  -0.000000   0.000003   0.000325  -0.000053  -0.000080
     3  O    0.020826   0.000001  -0.000065   0.000001   0.000000  -0.000002
     4  N   -0.009607   0.000009  -0.000122   0.000000   0.000016   0.000011
     5  C    0.007490   0.004929  -0.000899   0.003282  -0.006796  -0.006374
     6  C   -0.054677  -0.000546   0.007967  -0.000289  -0.001012  -0.000342
     7  C   -0.001537  -0.040057   0.007527   0.001506   0.003347   0.004404
     8  C    0.388225   0.006727  -0.042240   0.000023  -0.000067  -0.000099
     9  C    0.006846   0.397556  -0.043192   0.000026  -0.000300  -0.000522
    10  C   -0.029469  -0.039870   0.400321  -0.000000  -0.000009  -0.000014
    11  C    0.000016  -0.000062  -0.000001   0.384165   0.375640   0.373120
    12  H    0.000035  -0.005169  -0.000267   0.000223   0.000096  -0.000280
    13  H    0.433460  -0.000226  -0.006687  -0.000001  -0.000001   0.000001
    14  H   -0.000226   0.452981  -0.005586  -0.000000   0.000013   0.000015
    15  H   -0.006687  -0.005586   0.457808  -0.000000   0.000001   0.000001
    16  H   -0.000001  -0.000000  -0.000000   0.433510  -0.023709  -0.023830
    17  H   -0.000001   0.000013   0.000001  -0.023709   0.487029  -0.040638
    18  H    0.000001   0.000015   0.000001  -0.023830  -0.040638   0.489334
 Mulliken charges:
               1
     1  O   -0.325296
     2  O   -0.291088
     3  O   -0.304701
     4  N    0.160319
     5  C    0.279035
     6  C    0.169939
     7  C   -0.294352
     8  C   -0.193842
     9  C   -0.175357
    10  C   -0.218312
    11  C   -0.480481
    12  H    0.255054
    13  H    0.244544
    14  H    0.229362
    15  H    0.225427
    16  H    0.246951
    17  H    0.236795
    18  H    0.236004
 Sum of Mulliken charges =  -0.00000
 Mulliken charges with hydrogens summed into heavy atoms:
               1
     1  O   -0.325296
     2  O   -0.291088
     3  O   -0.304701
     4  N    0.160319
     5  C    0.279035
     6  C    0.169939
     7  C   -0.039298
     8  C    0.050702
     9  C    0.054005
    10  C    0.007115
    11  C    0.239269
 Electronic spatial extent (au):  <R**2>=           2693.6581
 Charge=             -0.0000 electrons
 Dipole moment (field-independent basis, Debye):
    X=             -5.2106    Y=              5.1291    Z=              0.0749  Tot=              7.3118
 Quadrupole moment (field-independent basis, Debye-Ang):
   XX=            -72.3569   YY=            -76.0535   ZZ=            -52.5330
   XY=              9.4869   XZ=              7.5527   YZ=             -1.5439
 Traceless Quadrupole moment (field-independent basis, Debye-Ang):
   XX=             -5.3758   YY=             -9.0723   ZZ=             14.4481
   XY=              9.4869   XZ=              7.5527   YZ=             -1.5439
 Octapole moment (field-independent basis, Debye-Ang**2):
  XXX=           -117.9328  YYY=            268.2596  ZZZ=            237.6816  XYY=            -61.8778
  XXY=            102.2402  XXZ=             92.7236  XZZ=            -44.9675  YZZ=             61.1983
  YYZ=            111.0849  XYZ=             -9.7088
 Hexadecapole moment (field-independent basis, Debye-Ang**3):
 XXXX=           -802.7412 YYYY=          -1378.9973 ZZZZ=          -1401.7200 XXXY=            348.2183
 XXXZ=             32.0682 YYYX=            404.5984 YYYZ=           -541.2511 ZZZX=             70.4568
 ZZZY=           -366.4764 XXYY=           -396.8657 XXZZ=           -355.2986 YYZZ=           -462.2781
 XXYZ=           -183.2608 YYXZ=             50.9599 ZZXY=            111.6435
 N-N= 6.021592007573D+02 E-N=-2.494443134962D+03  KE= 5.496052276742D+02
 Unable to Open any file for archive entry.
 1\1\GINC-SE437\FOpt\RB3LYP\6-311G(d)\C7H7N1O3\KEIGHAN\07-Jun-2024\0\\#
  opt B3LYP/6-311g* scrf=(solvent=water) int=ultrafine Nosymm\\2-nitroa
 nisole ground state geometry optimization\\0,1\O,0.904042565,-0.405925
 0359,0.1949494048\O,2.7382526126,-2.0458707018,-0.8164333001\O,1.79661
 37822,-3.6488205388,-1.9238293038\N,1.8207806622,-2.4973151823,-1.4905
 265153\C,0.2803367385,-0.5736001397,-0.9833706547\C,0.6965277175,-1.62
 42681285,-1.8350606197\C,-0.7996945899,0.2114118598,-1.4135905497\C,0.
 0529911382,-1.8765405598,-3.0462842668\C,-1.4217383439,-0.0340930152,-
 2.6327313247\C,-1.0024464046,-1.0776364417,-3.4577752191\C,0.425624173
 ,0.5971704647,1.0991869597\H,-1.1589082782,1.0197178098,-0.7918227659\
 H,0.4029363466,-2.7003194564,-3.6539578982\H,-2.2479672633,0.5994851,-
 2.9361292322\H,-1.489284042,-1.2649907889,-4.4070148159\H,1.0648039987
 ,0.5191552224,1.9747127773\H,0.5199837196,1.5949137827,0.664939569\H,-
 0.6121645322,0.4083557496,1.3828677553\\Version=ES64L-G16RevC.01\HF=-5
 51.408383\RMSD=8.062e-09\RMSF=1.709e-05\Dipole=-2.0499916,2.017929,0.0
 294486\Quadrupole=-3.9967577,-6.7450675,10.7418252,7.0532754,5.6152745
 ,-1.147832\PG=C01 [X(C7H7N1O3)]\\@
 The archive entry for this job was punched.


 NATURE REVEALS EVERY SECRET ONCE.
                    - RALPH WALDO EMERSON
 Job cpu time:       0 days  1 hours  4 minutes 56.3 seconds.
 Elapsed time:       0 days  0 hours 17 minutes 33.6 seconds.
 File lengths (MBytes):  RWF=     69 Int=      0 D2E=      0 Chk=     15 Scr=      1
 Normal termination of Gaussian 16 at Fri Jun  7 15:13:59 2024.
