 Entering Gaussian System, Link 0=g16
 Initial command:
 /arc/software/Gaussian/g16.c01/l1.exe "/tmp/slurm/1128496/Gau-168835.inp" -scrdir="/tmp/slurm/1128496/"
 Entering Link 1 = /arc/software/Gaussian/g16.c01/l1.exe PID=    168836.
  
 Copyright (c) 1988-2019, Gaussian, Inc.  All Rights Reserved.
  
 This is part of the Gaussian(R) 16 program.  It is based on
 the Gaussian(R) 09 system (copyright 2009, Gaussian, Inc.),
 the Gaussian(R) 03 system (copyright 2003, Gaussian, Inc.),
 the Gaussian(R) 98 system (copyright 1998, Gaussian, Inc.),
 the Gaussian(R) 94 system (copyright 1995, Gaussian, Inc.),
 the Gaussian 92(TM) system (copyright 1992, Gaussian, Inc.),
 the Gaussian 90(TM) system (copyright 1990, Gaussian, Inc.),
 the Gaussian 88(TM) system (copyright 1988, Gaussian, Inc.),
 the Gaussian 86(TM) system (copyright 1986, Carnegie Mellon
 University), and the Gaussian 82(TM) system (copyright 1983,
 Carnegie Mellon University). Gaussian is a federally registered
 trademark of Gaussian, Inc.
  
 This software contains proprietary and confidential information,
 including trade secrets, belonging to Gaussian, Inc.
  
 This software is provided under written license and may be
 used, copied, transmitted, or stored only in accord with that
 written license.
  
 The following legend is applicable only to US Government
 contracts under FAR:
  
                    RESTRICTED RIGHTS LEGEND
  
 Use, reproduction and disclosure by the US Government is
 subject to restrictions as set forth in subparagraphs (a)
 and (c) of the Commercial Computer Software - Restricted
 Rights clause in FAR 52.227-19.
  
 Gaussian, Inc.
 340 Quinnipiac St., Bldg. 40, Wallingford CT 06492
  
  
 ---------------------------------------------------------------
 Warning -- This program may not be used in any manner that
 competes with the business of Gaussian, Inc. or will provide
 assistance to any competitor of Gaussian, Inc.  The licensee
 of this program is prohibited from giving any competitor of
 Gaussian, Inc. access to this program.  By using this program,
 the user acknowledges that Gaussian, Inc. is engaged in the
 business of creating and licensing software in the field of
 computational chemistry and represents and warrants to the
 licensee that it is not a competitor of Gaussian, Inc. and that
 it will not use this program in any manner prohibited above.
 ---------------------------------------------------------------
  

 Cite this work as:
 Gaussian 16, Revision C.01,
 M. J. Frisch, G. W. Trucks, H. B. Schlegel, G. E. Scuseria, 
 M. A. Robb, J. R. Cheeseman, G. Scalmani, V. Barone, 
 G. A. Petersson, H. Nakatsuji, X. Li, M. Caricato, A. V. Marenich, 
 J. Bloino, B. G. Janesko, R. Gomperts, B. Mennucci, H. P. Hratchian, 
 J. V. Ortiz, A. F. Izmaylov, J. L. Sonnenberg, D. Williams-Young, 
 F. Ding, F. Lipparini, F. Egidi, J. Goings, B. Peng, A. Petrone, 
 T. Henderson, D. Ranasinghe, V. G. Zakrzewski, J. Gao, N. Rega, 
 G. Zheng, W. Liang, M. Hada, M. Ehara, K. Toyota, R. Fukuda, 
 J. Hasegawa, M. Ishida, T. Nakajima, Y. Honda, O. Kitao, H. Nakai, 
 T. Vreven, K. Throssell, J. A. Montgomery, Jr., J. E. Peralta, 
 F. Ogliaro, M. J. Bearpark, J. J. Heyd, E. N. Brothers, K. N. Kudin, 
 V. N. Staroverov, T. A. Keith, R. Kobayashi, J. Normand, 
 K. Raghavachari, A. P. Rendell, J. C. Burant, S. S. Iyengar, 
 J. Tomasi, M. Cossi, J. M. Millam, M. Klene, C. Adamo, R. Cammi, 
 J. W. Ochterski, R. L. Martin, K. Morokuma, O. Farkas, 
 J. B. Foresman, and D. J. Fox, Gaussian, Inc., Wallingford CT, 2019.
 
 ******************************************
 Gaussian 16:  ES64L-G16RevC.01  3-Jul-2019
                 7-Jun-2024 
 ******************************************
 %chk=ground_state_opt.chk
 %mem=128GB
 %nprocshared=4
 Will use up to    4 processors via shared memory.
 ----------------------------------------------------------------------
 # M062X/6-311g* TDA=(triplet,root=1) scrf=(solvent=water) int=ultrafin
 e Nosymm geom=checkpoint
 ----------------------------------------------------------------------
 1/29=2,38=1,172=1/1;
 2/12=2,15=1,40=1/2;
 3/5=4,6=6,7=1,11=9,14=-4,25=1,30=1,70=2201,72=1,74=-55,75=-5/1,2,3,8;
 4//1;
 5/5=2,38=5,53=1/2;
 8/6=1,10=2,107=1/1;
 9/8=1,42=1,48=3/14;
 6/7=2,8=2,9=2,10=2/1;
 99/5=1,9=1/99;
 ---------------------------------------
 4-nitrophenol triplet state calculation
 ---------------------------------------
 Structure from the checkpoint file:  "ground_state_opt.chk"
 Charge =  0 Multiplicity = 3
 Redundant internal coordinates found in file.  (old form).
 O,0,2.2417307241,0.0061233134,0.0166774458
 O,0,-3.8847235624,1.1982829053,-0.0300041796
 O,0,-3.947249591,-0.9655975585,-0.0327835537
 N,0,-3.3328361802,0.0995230042,-0.0271297636
 C,0,-1.8756060605,0.0579220577,-0.0159693331
 C,0,-1.1553604602,1.2550016109,-0.0089864739
 C,0,-1.2269162054,-1.1769887498,-0.0122988316
 C,0,0.8916774757,-0.0213702185,0.0056376432
 C,0,0.2267344565,1.2141210888,0.001727016
 C,0,0.1574973496,-1.2165565935,-0.0014629513
 H,0,-1.6820948354,2.1991773134,-0.012202652
 H,0,-1.8065324867,-2.0896144137,-0.0180242772
 H,0,0.8108883144,2.1264294378,0.007064145
 H,0,0.6725028755,-2.1713907055,0.001294126
 H,0,2.6052981859,-0.888842492,0.0154316401
 Recover connectivity data from disk.
                           ----------------------------
                           !    Current Parameters    !
                           ! (Angstroms and Degrees)  !
 --------------------------                            --------------------------
 ! Name  Definition              Value                                          !
 --------------------------------------------------------------------------------
 ! R1    R(1,8)                  1.3504                                         !
 ! R2    R(1,15)                 0.966                                          !
 ! R3    R(2,4)                  1.2296                                         !
 ! R4    R(3,4)                  1.2296                                         !
 ! R5    R(4,5)                  1.4579                                         !
 ! R6    R(5,6)                  1.3971                                         !
 ! R7    R(5,7)                  1.3949                                         !
 ! R8    R(6,9)                  1.3827                                         !
 ! R9    R(6,11)                 1.0812                                         !
 ! R10   R(7,10)                 1.385                                          !
 ! R11   R(7,12)                 1.0811                                         !
 ! R12   R(8,9)                  1.4031                                         !
 ! R13   R(8,10)                 1.4027                                         !
 ! R14   R(9,13)                 1.0833                                         !
 ! R15   R(10,14)                1.0849                                         !
 ! A1    A(8,1,15)             110.9407                                         !
 ! A2    A(2,4,3)              123.3508                                         !
 ! A3    A(2,4,5)              118.305                                          !
 ! A4    A(3,4,5)              118.3443                                         !
 ! A5    A(4,5,6)              119.4                                            !
 ! A6    A(4,5,7)              119.3481                                         !
 ! A7    A(6,5,7)              121.2519                                         !
 ! A8    A(5,6,9)              119.341                                          !
 ! A9    A(5,6,11)             119.8083                                         !
 ! A10   A(9,6,11)             120.8508                                         !
 ! A11   A(5,7,10)             119.35                                           !
 ! A12   A(5,7,12)             119.8659                                         !
 ! A13   A(10,7,12)            120.7841                                         !
 ! A14   A(1,8,9)              117.1229                                         !
 ! A15   A(1,8,10)             122.7294                                         !
 ! A16   A(9,8,10)             120.1477                                         !
 ! A17   A(6,9,8)              119.9837                                         !
 ! A18   A(6,9,13)             120.9384                                         !
 ! A19   A(8,9,13)             119.0778                                         !
 ! A20   A(7,10,8)             119.9257                                         !
 ! A21   A(7,10,14)            119.9783                                         !
 ! A22   A(8,10,14)            120.0961                                         !
 ! D1    D(15,1,8,9)          -179.8021                                         !
 ! D2    D(15,1,8,10)            0.2147                                         !
 ! D3    D(2,4,5,6)             -0.0025                                         !
 ! D4    D(2,4,5,7)            179.9896                                         !
 ! D5    D(3,4,5,6)           -179.9812                                         !
 ! D6    D(3,4,5,7)              0.0109                                         !
 ! D7    D(4,5,6,9)            179.9938                                         !
 ! D8    D(4,5,6,11)            -0.0184                                         !
 ! D9    D(7,5,6,9)              0.0019                                         !
 ! D10   D(7,5,6,11)           179.9897                                         !
 ! D11   D(4,5,7,10)          -179.9889                                         !
 ! D12   D(4,5,7,12)             0.018                                          !
 ! D13   D(6,5,7,10)             0.003                                          !
 ! D14   D(6,5,7,12)          -179.99                                           !
 ! D15   D(5,6,9,8)             -0.0072                                         !
 ! D16   D(5,6,9,13)           179.984                                          !
 ! D17   D(11,6,9,8)          -179.9949                                         !
 ! D18   D(11,6,9,13)           -0.0036                                         !
 ! D19   D(5,7,10,8)            -0.0025                                         !
 ! D20   D(5,7,10,14)         -179.9886                                         !
 ! D21   D(12,7,10,8)          179.9905                                         !
 ! D22   D(12,7,10,14)           0.0043                                         !
 ! D23   D(1,8,9,6)           -179.9759                                         !
 ! D24   D(1,8,9,13)             0.0327                                         !
 ! D25   D(10,8,9,6)             0.0078                                         !
 ! D26   D(10,8,9,13)         -179.9836                                         !
 ! D27   D(1,8,10,7)           179.9799                                         !
 ! D28   D(1,8,10,14)           -0.034                                          !
 ! D29   D(9,8,10,7)            -0.0029                                         !
 ! D30   D(9,8,10,14)          179.9833                                         !
 --------------------------------------------------------------------------------
                          Input orientation:                          
 ---------------------------------------------------------------------
 Center     Atomic      Atomic             Coordinates (Angstroms)
 Number     Number       Type             X           Y           Z
 ---------------------------------------------------------------------
      1          8           0        2.241731    0.006123    0.016677
      2          8           0       -3.884724    1.198283   -0.030004
      3          8           0       -3.947250   -0.965598   -0.032784
      4          7           0       -3.332836    0.099523   -0.027130
      5          6           0       -1.875606    0.057922   -0.015969
      6          6           0       -1.155360    1.255002   -0.008986
      7          6           0       -1.226916   -1.176989   -0.012299
      8          6           0        0.891677   -0.021370    0.005638
      9          6           0        0.226734    1.214121    0.001727
     10          6           0        0.157497   -1.216557   -0.001463
     11          1           0       -1.682095    2.199177   -0.012203
     12          1           0       -1.806532   -2.089614   -0.018024
     13          1           0        0.810888    2.126429    0.007064
     14          1           0        0.672503   -2.171391    0.001294
     15          1           0        2.605298   -0.888842    0.015432
 ---------------------------------------------------------------------
                    Distance matrix (angstroms):
                    1          2          3          4          5
     1  O    0.000000
     2  O    6.241544   0.000000
     3  O    6.264995   2.164785   0.000000
     4  N    5.575521   1.229578   1.229641   0.000000
     5  C    4.117792   2.310232   2.310754   1.457867   0.000000
     6  C    3.619473   2.730033   3.567390   2.465129   1.397069
     7  C    3.664984   3.564571   2.728611   2.462641   1.394925
     8  C    1.350378   4.929790   4.930340   4.226370   2.768504
     9  C    2.349402   4.111611   4.708982   3.730108   2.399363
    10  C    2.416465   4.708696   4.112531   3.730302   2.399587
    11  H    4.495189   2.419438   3.891934   2.670902   2.149985
    12  H    4.558701   3.889639   2.417913   2.668709   2.148648
    13  H    2.557948   4.786606   5.674689   4.613022   3.390650
    14  H    2.684079   5.667803   4.774643   4.604411   3.385704
    15  H    0.965995   6.817517   6.553175   6.019977   4.579940
                    6          7          8          9         10
     6  C    0.000000
     7  C    2.433045   0.000000
     8  C    2.412406   2.413341   0.000000
     9  C    1.382741   2.798339   1.403069   0.000000
    10  C    2.798616   1.385021   1.402691   2.431666   0.000000
    11  H    1.081169   3.406712   3.399331   2.148059   3.879620
    12  H    3.407428   1.081144   3.399784   3.879334   2.149399
    13  H    2.150762   3.881442   2.149319   1.083315   3.406251
    14  H    3.883472   2.144018   2.161167   3.414733   1.084872
    15  H    4.328882   3.843132   1.920703   3.174934   2.469699
                   11         12         13         14         15
    11  H    0.000000
    12  H    4.290601   0.000000
    13  H    2.494119   4.962514   0.000000
    14  H    4.964492   2.480459   4.300051   0.000000
    15  H    5.283784   4.572442   3.508823   2.319661   0.000000
 Symmetry turned off by external request.
 Stoichiometry    C6H5NO3(3)
 Framework group  C1[X(C6H5NO3)]
 Deg. of freedom    39
 Full point group                 C1      NOp   1
 Rotational constants (GHZ):           3.9540737           0.8193562           0.6787143
 Standard basis: 6-311G(d) (5D, 7F)
   195 basis functions,   345 primitive gaussians,   205 cartesian basis functions
    37 alpha electrons       35 beta electrons
       nuclear repulsion energy       495.4560923979 Hartrees.
 NAtoms=   15 NActive=   15 NUniq=   15 SFac= 1.00D+00 NAtFMM=   60 NAOKFM=F Big=F
 Integral buffers will be    131072 words long.
 Regular integral format.
 Two-electron integral symmetry is turned off.
 ------------------------------------------------------------------------------
 Polarizable Continuum Model (PCM)
 =================================
 Model                : PCM.
 Atomic radii         : UFF (Universal Force Field).
 Polarization charges : Total charges.
 Charge compensation  : None.
 Solution method      : On-the-fly selection.
 Cavity type          : Scaled VdW (van der Waals Surface) (Alpha=1.100).
 Cavity algorithm     : GePol (No added spheres)
                        Default sphere list used, NSphG=   15.
                        Lebedev-Laikov grids with approx.  5.0 points / Ang**2.
                        Smoothing algorithm: York/Karplus (Gamma=1.0000).
                        Polarization charges: spherical gaussians, with
                                              point-specific exponents (IZeta= 3).
                        Self-potential: point-specific (ISelfS= 7).
                        Self-field    : sphere-specific E.n sum rule (ISelfD= 2).
 Solvent              : Water, Eps=  78.355300 Eps(inf)=   1.777849
 ------------------------------------------------------------------------------
 Spheres list:
 ISph  on   Nord     Re0    Alpha      Xe            Ye            Ze
    1   O      1    1.7500  1.100      2.241731      0.006123      0.016677
    2   O      2    1.7500  1.100     -3.884724      1.198283     -0.030004
    3   O      3    1.7500  1.100     -3.947250     -0.965598     -0.032784
    4   N      4    1.8300  1.100     -3.332836      0.099523     -0.027130
    5   C      5    1.9255  1.100     -1.875606      0.057922     -0.015969
    6   C      6    1.9255  1.100     -1.155360      1.255002     -0.008986
    7   C      7    1.9255  1.100     -1.226916     -1.176989     -0.012299
    8   C      8    1.9255  1.100      0.891677     -0.021370      0.005638
    9   C      9    1.9255  1.100      0.226734      1.214121      0.001727
   10   C     10    1.9255  1.100      0.157497     -1.216557     -0.001463
   11   H     11    1.4430  1.100     -1.682095      2.199177     -0.012203
   12   H     12    1.4430  1.100     -1.806532     -2.089614     -0.018024
   13   H     13    1.4430  1.100      0.810888      2.126429      0.007064
   14   H     14    1.4430  1.100      0.672503     -2.171391      0.001294
   15   H     15    1.4430  1.100      2.605298     -0.888842      0.015432
 ------------------------------------------------------------------------------
 One-electron integrals computed using PRISM.
 NBasis=   195 RedAO= T EigKep=  2.17D-04  NBF=   195
 NBsUse=   195 1.00D-06 EigRej= -1.00D+00 NBFU=   195
 ExpMin= 1.03D-01 ExpMax= 8.59D+03 ExpMxC= 1.30D+03 IAcc=3 IRadAn=         5 AccDes= 0.00D+00
 Harris functional with IExCor= 1009 and IRadAn=       5 diagonalized for initial guess.
 HarFok:  IExCor= 1009 AccDes= 0.00D+00 IRadAn=         5 IDoV= 1 UseB2=F ITyADJ=14
 ICtDFT=  3500011 ScaDFX=  1.000000  1.000000  1.000000  1.000000
 FoFCou: FMM=F IPFlag=           0 FMFlag=      100000 FMFlg1=           0
         NFxFlg=           0 DoJE=T BraDBF=F KetDBF=T FulRan=T
         wScrn=  0.000000 ICntrl=       500 IOpCl=  0 I1Cent=   200000004 NGrid=           0
         NMat0=    1 NMatS0=      1 NMatT0=    0 NMatD0=    1 NMtDS0=    0 NMtDT0=    0
 Symmetry not used in FoFCou.
 Initial guess <Sx>= 0.0000 <Sy>= 0.0000 <Sz>= 1.0000 <S**2>= 2.0000 S= 1.0000
 Keep R1 and R2 ints in memory in canonical form, NReq=369583074.
 Requested convergence on RMS density matrix=1.00D-08 within 128 cycles.
 Requested convergence on MAX density matrix=1.00D-06.
 Requested convergence on             energy=1.00D-06.
 No special actions if energy rises.
 Inv3:  Mode=1 IEnd=     5812992.
 Iteration    1 A*A^-1 deviation from unit magnitude is 2.33D-15 for   1009.
 Iteration    1 A*A^-1 deviation from orthogonality  is 1.49D-15 for    878    579.
 Iteration    1 A^-1*A deviation from unit magnitude is 2.44D-15 for   1380.
 Iteration    1 A^-1*A deviation from orthogonality  is 1.78D-15 for   1392   1388.
 Error on total polarization charges =  0.00624
 SCF Done:  E(UM062X) =  -511.778128028     A.U. after   21 cycles
            NFock= 21  Conv=0.80D-08     -V/T= 2.0025
 <Sx>= 0.0000 <Sy>= 0.0000 <Sz>= 1.0000 <S**2>= 2.0075 S= 1.0025
 <L.S>=  0.00000000000    
 Annihilation of the first spin contaminant:
 S**2 before annihilation     2.0075,   after     2.0000
 DoSCS=F DFT=T ScalE2(SS,OS)=  1.000000  1.000000
 ExpMin= 1.03D-01 ExpMax= 8.59D+03 ExpMxC= 1.30D+03 IAcc=3 IRadAn=         5 AccDes= 0.00D+00
 HarFok:  IExCor=  205 AccDes= 0.00D+00 IRadAn=         5 IDoV=-2 UseB2=F ITyADJ=14
 ICtDFT= 12500011 ScaDFX=  1.000000  1.000000  1.000000  1.000000
 Range of M.O.s used for correlation:    11   195
 NBasis=   195 NAE=    37 NBE=    35 NFC=    10 NFV=     0
 NROrb=    185 NOA=    27 NOB=    25 NVA=   158 NVB=   160

 **** Warning!!: The largest alpha MO coefficient is  0.16252433D+02


 **** Warning!!: The largest beta MO coefficient is  0.16919239D+02

 Ignoring spin specification with unrestricted ground state.
 Keep R1, R2, and R3 ints in memory in canonical form, NReq=562134108.
 NEqPCM:  Using non-equilibrium solvation (IEInf=1, Eps=  78.3553, EpsInf=   1.7778)
 Inv3:  Mode=1 IEnd=     5812992.
 Iteration    1 A*A^-1 deviation from unit magnitude is 3.11D-15 for    238.
 Iteration    1 A*A^-1 deviation from orthogonality  is 1.67D-15 for   1373   1297.
 Iteration    1 A^-1*A deviation from unit magnitude is 2.66D-15 for   1389.
 Iteration    1 A^-1*A deviation from orthogonality  is 1.55D-15 for   1181    858.
    12 initial guesses have been made.
 Convergence on wavefunction:    0.001000000000000
 Iteration     1 Dimension    12 NMult     0 NNew     12
 CISAX will form    12 AO SS matrices at one time.
 New state      1 was old state      4
 New state      2 was old state      1
 New state      3 was old state      2
 Iteration     2 Dimension    24 NMult    12 NNew     12
 Iteration     3 Dimension    27 NMult    24 NNew      3
 Iteration     4 Dimension    30 NMult    27 NNew      3
 Iteration     5 Dimension    33 NMult    30 NNew      3
 Iteration     6 Dimension    34 NMult    33 NNew      1
 ***********************************************************************
 Excited states from <AA,BB:AA,BB> singles matrix:
 ***********************************************************************
 
 ExtSpn:  IState=     1 X2= 1.000 Y2= 0.000 X2-Y2-1= 2.22D-16
          S2Grnd=  2.007 Ra=  0.016 Rb=  0.017 T=  0.019 S2Ext=  0.053 S2=  2.060
 ExtSpn:  IState=     2 X2= 1.000 Y2= 0.000 X2-Y2-1= 2.22D-15
          S2Grnd=  2.007 Ra=  0.013 Rb=  0.015 T= -0.009 S2Ext=  0.020 S2=  2.027
 ExtSpn:  IState=     3 X2= 1.000 Y2= 0.000 X2-Y2-1=-8.88D-16
          S2Grnd=  2.007 Ra=  0.000 Rb=  0.007 T=  0.000 S2Ext=  0.007 S2=  2.015
 Ground to excited state transition densities written to RWF  633
 Ground to excited state transition electric dipole moments (Au):
       state          X           Y           Z        Dip. S.      Osc.
         1         0.0146     -0.2189     -0.0001      0.0482      0.0014
         2        -0.0111      0.5162      0.0005      0.2666      0.0099
         3         0.0002      0.0014     -0.0022      0.0000      0.0000
 Ground to excited state transition velocity dipole moments (Au):
       state          X           Y           Z        Dip. S.      Osc.
         1         0.0020     -0.0144      0.0000      0.0002      0.0033
         2         0.0023      0.0803      0.0001      0.0065      0.0769
         3         0.0000      0.0002     -0.0003      0.0000      0.0000
 Ground to excited state transition magnetic dipole moments (Au):
       state          X           Y           Z
         1         0.0054      0.0007     -0.7057
         2         0.0052      0.0005     -0.5570
         3        -0.2428     -0.0014     -0.0034
 Ground to excited state transition velocity quadrupole moments (Au):
       state          XX          YY          ZZ          XY          XZ          YZ
         1        -0.0204      0.0099      0.0004     -0.3583     -0.0005     -0.0028
         2        -0.0301      0.0240      0.0002     -0.3939     -0.0006     -0.0031
         3         0.0001      0.0002     -0.0000     -0.0010     -0.0002      0.0042
 <0|del|b> * <b|rxdel|0> + <0|del|b> * <b|delr+rdel|0>
 Rotatory Strengths (R) in cgs (10**-40 erg-esu-cm/Gauss)
       state          XX          YY          ZZ    R(velocity)    E-M Angle
         1        -0.2557      0.0089      0.1137     -0.0444       90.00
         2         0.0468     -0.0659      0.0754      0.0188       90.00
         3         0.0057     -0.0112     -0.0178     -0.0078       90.00
 1/2[<0|r|b>*<b|rxdel|0> + (<0|rxdel|b>*<b|r|0>)*]
 Rotatory Strengths (R) in cgs (10**-40 erg-esu-cm/Gauss)
       state          XX          YY          ZZ     R(length)
         1        -0.0559      0.1125     -0.0510      0.0018
         2         0.0406     -0.2007      0.1938      0.0112
         3         0.0306      0.0013     -0.0053      0.0089
  1/2[<0|del|b>*<b|r|0> + (<0|r|b>*<b|del|0>)*] (Au)
       state          X           Y           Z        Dip. S.   Osc.(frdel)
         1         0.0000      0.0031     -0.0000     -0.0032     -0.0021
         2        -0.0000      0.0415      0.0000     -0.0414     -0.0276
         3         0.0000      0.0000      0.0000     -0.0000     -0.0000

 Excitation energies and oscillator strengths:
 
 Excited state symmetry could not be determined.
 Excited State   1:  3.040-?Sym    1.1697 eV 1059.95 nm  f=0.0014  <S**2>=2.060
     37A -> 38A       -0.19383
     33B -> 36B        0.82462
     35B -> 36B        0.50910
 This state for optimization and/or second-order correction.
 Total Energy, E(CIS/TDA) =  -511.735141505    
 Copying the excited state density for this state as the 1-particle RhoCI density.
 
 Excited state symmetry could not be determined.
 Excited State   2:  3.018-?Sym    1.5226 eV  814.27 nm  f=0.0099  <S**2>=2.027
     37A -> 38A        0.39438
     33B -> 36B       -0.40387
     35B -> 36B        0.80822
     35B -> 37B        0.12019
 
 Excited state symmetry could not be determined.
 Excited State   3:  3.010-?Sym    1.5631 eV  793.20 nm  f=0.0000  <S**2>=2.015
     34B -> 36B        0.95039
     34B -> 37B        0.28179
     34B -> 40B       -0.11251
 SavETr:  write IOETrn=   770 NScale= 10 NData=  16 NLR=1 NState=    3 LETran=      64.

 **********************************************************************

            Population analysis using the SCF Density.

 **********************************************************************

 Alpha  occ. eigenvalues --  -19.72022 -19.59949 -19.59886 -14.92895 -10.66299
 Alpha  occ. eigenvalues --  -10.64176 -10.59767 -10.59678 -10.57952 -10.57811
 Alpha  occ. eigenvalues --   -1.31996  -1.25482  -1.13414  -1.02206  -0.92410
 Alpha  occ. eigenvalues --   -0.89630  -0.80707  -0.75792  -0.70900  -0.67458
 Alpha  occ. eigenvalues --   -0.62768  -0.60561  -0.60547  -0.56394  -0.56106
 Alpha  occ. eigenvalues --   -0.55709  -0.53622  -0.52278  -0.50000  -0.46970
 Alpha  occ. eigenvalues --   -0.44846  -0.38120  -0.36610  -0.36002  -0.35691
 Alpha  occ. eigenvalues --   -0.34258  -0.18270
 Alpha virt. eigenvalues --   -0.01802   0.00850   0.06362   0.08465   0.11111
 Alpha virt. eigenvalues --    0.14354   0.16276   0.16625   0.20539   0.22186
 Alpha virt. eigenvalues --    0.24803   0.28465   0.31715   0.32285   0.34581
 Alpha virt. eigenvalues --    0.38509   0.38736   0.40104   0.40786   0.41522
 Alpha virt. eigenvalues --    0.42057   0.44016   0.45415   0.45681   0.46245
 Alpha virt. eigenvalues --    0.50378   0.51678   0.53077   0.53418   0.54267
 Alpha virt. eigenvalues --    0.60022   0.62992   0.63767   0.64226   0.64319
 Alpha virt. eigenvalues --    0.66095   0.69430   0.70818   0.71342   0.74911
 Alpha virt. eigenvalues --    0.78083   0.80314   0.81412   0.82538   0.84039
 Alpha virt. eigenvalues --    0.84750   0.87476   0.87924   0.88525   0.90083
 Alpha virt. eigenvalues --    0.91230   0.94254   0.95488   1.00378   1.01783
 Alpha virt. eigenvalues --    1.04039   1.08832   1.09527   1.11407   1.19760
 Alpha virt. eigenvalues --    1.20108   1.20550   1.20966   1.22938   1.24697
 Alpha virt. eigenvalues --    1.24932   1.35252   1.43735   1.44260   1.44828
 Alpha virt. eigenvalues --    1.55910   1.57506   1.62511   1.65273   1.67100
 Alpha virt. eigenvalues --    1.71310   1.74495   1.74776   1.77497   1.77893
 Alpha virt. eigenvalues --    1.79858   1.86615   1.90457   1.90700   1.92209
 Alpha virt. eigenvalues --    1.95676   1.99024   2.04129   2.12843   2.17341
 Alpha virt. eigenvalues --    2.19459   2.23761   2.26795   2.29687   2.32208
 Alpha virt. eigenvalues --    2.33170   2.35722   2.45534   2.53159   2.59178
 Alpha virt. eigenvalues --    2.60932   2.64876   2.65756   2.67447   2.79718
 Alpha virt. eigenvalues --    2.80797   2.83038   2.87994   2.91604   2.92767
 Alpha virt. eigenvalues --    2.96269   2.97691   3.02975   3.03697   3.15187
 Alpha virt. eigenvalues --    3.15989   3.16713   3.20710   3.25707   3.27142
 Alpha virt. eigenvalues --    3.30591   3.32642   3.36898   3.37931   3.44247
 Alpha virt. eigenvalues --    3.46448   3.46485   3.54201   3.58351   3.70349
 Alpha virt. eigenvalues --    3.72289   3.81008   3.83607   3.84155   3.94332
 Alpha virt. eigenvalues --    4.02216   4.55738   4.68807   4.75134   4.85556
 Alpha virt. eigenvalues --    4.97341   4.99273   5.07318   5.11737   5.13204
 Alpha virt. eigenvalues --    5.55545   5.69042   6.13184  23.26943  23.83339
 Alpha virt. eigenvalues --   23.87047  24.02129  24.10306  24.16724  35.51080
 Alpha virt. eigenvalues --   49.93558  49.98435  50.11650
  Beta  occ. eigenvalues --  -19.71466 -19.59462 -19.59398 -14.92564 -10.66032
  Beta  occ. eigenvalues --  -10.63946 -10.59751 -10.59641 -10.57896 -10.57782
  Beta  occ. eigenvalues --   -1.30567  -1.23806  -1.11882  -1.00987  -0.90380
  Beta  occ. eigenvalues --   -0.89180  -0.79145  -0.75004  -0.69882  -0.66741
  Beta  occ. eigenvalues --   -0.61586  -0.59556  -0.56356  -0.55253  -0.54914
  Beta  occ. eigenvalues --   -0.53297  -0.51566  -0.51483  -0.49361  -0.44376
  Beta  occ. eigenvalues --   -0.41882  -0.35699  -0.34920  -0.33486  -0.31507
  Beta virt. eigenvalues --   -0.17685  -0.00752   0.00253   0.06528   0.07976
  Beta virt. eigenvalues --    0.08679   0.11143   0.14507   0.16353   0.19816
  Beta virt. eigenvalues --    0.21854   0.23259   0.25325   0.29330   0.32414
  Beta virt. eigenvalues --    0.33077   0.35271   0.38639   0.39034   0.41035
  Beta virt. eigenvalues --    0.41431   0.42169   0.42698   0.44863   0.45447
  Beta virt. eigenvalues --    0.45968   0.46720   0.51001   0.52370   0.53458
  Beta virt. eigenvalues --    0.54030   0.54603   0.60756   0.63413   0.63803
  Beta virt. eigenvalues --    0.64695   0.64748   0.66570   0.69795   0.71782
  Beta virt. eigenvalues --    0.72231   0.75492   0.78693   0.80905   0.82331
  Beta virt. eigenvalues --    0.83301   0.84534   0.86777   0.87845   0.88089
  Beta virt. eigenvalues --    0.88848   0.91452   0.92125   0.95749   0.96215
  Beta virt. eigenvalues --    1.01980   1.02501   1.04142   1.09562   1.10106
  Beta virt. eigenvalues --    1.11661   1.20049   1.20896   1.22844   1.22950
  Beta virt. eigenvalues --    1.23215   1.24938   1.26344   1.35495   1.44706
  Beta virt. eigenvalues --    1.45105   1.45481   1.56710   1.58139   1.63455
  Beta virt. eigenvalues --    1.66041   1.68634   1.71787   1.75865   1.76118
  Beta virt. eigenvalues --    1.79098   1.79202   1.80540   1.88128   1.91804
  Beta virt. eigenvalues --    1.92613   1.93064   1.97082   2.00027   2.05019
  Beta virt. eigenvalues --    2.14574   2.18766   2.21387   2.24444   2.27894
  Beta virt. eigenvalues --    2.31339   2.32532   2.33980   2.37358   2.46560
  Beta virt. eigenvalues --    2.56183   2.60281   2.61968   2.66086   2.68820
  Beta virt. eigenvalues --    2.69546   2.81268   2.83800   2.84302   2.89551
  Beta virt. eigenvalues --    2.93164   2.94593   2.97468   2.98962   3.04188
  Beta virt. eigenvalues --    3.06183   3.15988   3.17662   3.17736   3.22574
  Beta virt. eigenvalues --    3.26269   3.27854   3.31067   3.32932   3.37604
  Beta virt. eigenvalues --    3.38785   3.45078   3.47278   3.47686   3.55040
  Beta virt. eigenvalues --    3.59426   3.71032   3.72922   3.81937   3.84460
  Beta virt. eigenvalues --    3.86445   3.96130   4.03684   4.56292   4.70506
  Beta virt. eigenvalues --    4.77776   4.88077   4.99424   5.01317   5.07923
  Beta virt. eigenvalues --    5.12320   5.13782   5.55999   5.69692   6.13273
  Beta virt. eigenvalues --   23.27092  23.83650  23.87747  24.02966  24.10618
  Beta virt. eigenvalues --   24.17280  35.50645  49.93073  49.97927  50.11136
          Condensed to atoms (all electrons):
               1          2          3          4          5          6
     1  O    8.032639   0.000000   0.000000  -0.000000  -0.000867   0.003983
     2  O    0.000000   8.394438  -0.118716   0.265357  -0.169130   0.033432
     3  O    0.000000  -0.118716   8.392640   0.266233  -0.170649   0.010716
     4  N   -0.000000   0.265357   0.266233   6.216637   0.288308  -0.055553
     5  C   -0.000867  -0.169130  -0.170649   0.288308   5.324966   0.322612
     6  C    0.003983   0.033432   0.010716  -0.055553   0.322612   5.177211
     7  C    0.008242   0.011053   0.034972  -0.058372   0.301064  -0.069718
     8  C    0.321444   0.000026   0.000058  -0.000068  -0.037687  -0.057816
     9  C   -0.047567   0.001707  -0.000142   0.004466  -0.038823   0.536089
    10  C   -0.069097  -0.000165   0.001600   0.004789  -0.029511  -0.014218
    11  H   -0.000077   0.025785   0.000965  -0.008214  -0.047725   0.381915
    12  H   -0.000047   0.000992   0.026442  -0.008320  -0.045600   0.005260
    13  H    0.001095  -0.000051   0.000002  -0.000060   0.005037  -0.024463
    14  H   -0.003969   0.000001  -0.000074  -0.000075   0.004910  -0.000365
    15  H    0.273046   0.000000   0.000000  -0.000001  -0.000052  -0.000275
               7          8          9         10         11         12
     1  O    0.008242   0.321444  -0.047567  -0.069097  -0.000077  -0.000047
     2  O    0.011053   0.000026   0.001707  -0.000165   0.025785   0.000992
     3  O    0.034972   0.000058  -0.000142   0.001600   0.000965   0.026442
     4  N   -0.058372  -0.000068   0.004466   0.004789  -0.008214  -0.008320
     5  C    0.301064  -0.037687  -0.038823  -0.029511  -0.047725  -0.045600
     6  C   -0.069718  -0.057816   0.536089  -0.014218   0.381915   0.005260
     7  C    5.260795  -0.031345  -0.012602   0.441227   0.005570   0.376802
     8  C   -0.031345   4.861080   0.428305   0.358022   0.005938   0.004451
     9  C   -0.012602   0.428305   5.055535  -0.106023  -0.025412  -0.001227
    10  C    0.441227   0.358022  -0.106023   5.254029  -0.001478  -0.020177
    11  H    0.005570   0.005938  -0.025412  -0.001478   0.383645  -0.000244
    12  H    0.376802   0.004451  -0.001227  -0.020177  -0.000244   0.379793
    13  H   -0.001594  -0.038951   0.378604   0.007535  -0.005366   0.000041
    14  H   -0.017952  -0.039535   0.003682   0.379209   0.000036  -0.004730
    15  H    0.001004  -0.053613   0.006054   0.004059   0.000016  -0.000001
              13         14         15
     1  O    0.001095  -0.003969   0.273046
     2  O   -0.000051   0.000001   0.000000
     3  O    0.000002  -0.000074   0.000000
     4  N   -0.000060  -0.000075  -0.000001
     5  C    0.005037   0.004910  -0.000052
     6  C   -0.024463  -0.000365  -0.000275
     7  C   -0.001594  -0.017952   0.001004
     8  C   -0.038951  -0.039535  -0.053613
     9  C    0.378604   0.003682   0.006054
    10  C    0.007535   0.379209   0.004059
    11  H   -0.005366   0.000036   0.000016
    12  H    0.000041  -0.004730  -0.000001
    13  H    0.383779  -0.000176  -0.000432
    14  H   -0.000176   0.377653   0.002159
    15  H   -0.000432   0.002159   0.293181
          Atomic-Atomic Spin Densities.
               1          2          3          4          5          6
     1  O    0.315130   0.000000   0.000000  -0.000000   0.000087   0.000598
     2  O    0.000000   0.311815   0.016887  -0.101196  -0.019178   0.005508
     3  O    0.000000   0.016887   0.310901  -0.100530  -0.019273   0.000895
     4  N   -0.000000  -0.101196  -0.100530   0.342328   0.077507  -0.016898
     5  C    0.000087  -0.019178  -0.019273   0.077507   0.536362  -0.045397
     6  C    0.000598   0.005508   0.000895  -0.016898  -0.045397   0.127576
     7  C    0.000485   0.000961   0.005760  -0.018322  -0.042840   0.019613
     8  C   -0.106581  -0.000013  -0.000014   0.000262   0.000012  -0.022093
     9  C   -0.005610   0.000029   0.000008  -0.000054  -0.014492  -0.001982
    10  C   -0.002741   0.000006   0.000026   0.000006  -0.013384  -0.001268
    11  H   -0.000000  -0.000700  -0.000029   0.000256  -0.000995   0.000663
    12  H    0.000000  -0.000029  -0.000707   0.000259  -0.001045  -0.000036
    13  H    0.000070   0.000001  -0.000000   0.000004   0.000014  -0.000354
    14  H    0.000111  -0.000000   0.000001   0.000004  -0.000000   0.000020
    15  H   -0.002895   0.000000  -0.000000   0.000000   0.000006   0.000001
               7          8          9         10         11         12
     1  O    0.000485  -0.106581  -0.005610  -0.002741  -0.000000   0.000000
     2  O    0.000961  -0.000013   0.000029   0.000006  -0.000700  -0.000029
     3  O    0.005760  -0.000014   0.000008   0.000026  -0.000029  -0.000707
     4  N   -0.018322   0.000262  -0.000054   0.000006   0.000256   0.000259
     5  C   -0.042840   0.000012  -0.014492  -0.013384  -0.000995  -0.001045
     6  C    0.019613  -0.022093  -0.001982  -0.001268   0.000663  -0.000036
     7  C    0.183817  -0.023532  -0.001291  -0.007777  -0.000021   0.000364
     8  C   -0.023532   0.509315   0.034988   0.034790  -0.000019  -0.000011
     9  C   -0.001291   0.034988   0.087331   0.004485  -0.000462   0.000024
    10  C   -0.007777   0.034790   0.004485   0.043753   0.000024  -0.000436
    11  H   -0.000021  -0.000019  -0.000462   0.000024  -0.006102   0.000007
    12  H    0.000364  -0.000011   0.000024  -0.000436   0.000007  -0.007754
    13  H    0.000026  -0.000571  -0.000657  -0.000076   0.000055  -0.000001
    14  H   -0.000453  -0.000576  -0.000025  -0.000242  -0.000001   0.000072
    15  H   -0.000030   0.000910  -0.000186   0.000058  -0.000000  -0.000002
              13         14         15
     1  O    0.000070   0.000111  -0.002895
     2  O    0.000001  -0.000000   0.000000
     3  O   -0.000000   0.000001  -0.000000
     4  N    0.000004   0.000004   0.000000
     5  C    0.000014  -0.000000   0.000006
     6  C   -0.000354   0.000020   0.000001
     7  C    0.000026  -0.000453  -0.000030
     8  C   -0.000571  -0.000576   0.000910
     9  C   -0.000657  -0.000025  -0.000186
    10  C   -0.000076  -0.000242   0.000058
    11  H    0.000055  -0.000001  -0.000000
    12  H   -0.000001   0.000072  -0.000002
    13  H   -0.005666  -0.000002   0.000007
    14  H   -0.000002  -0.004508   0.000049
    15  H    0.000007   0.000049  -0.006087
 Mulliken charges and spin densities:
               1          2
     1  O   -0.518825   0.198652
     2  O   -0.444730   0.214092
     3  O   -0.444046   0.213927
     4  N    0.084872   0.183627
     5  C    0.293147   0.457385
     6  C   -0.248809   0.066847
     7  C   -0.249146   0.116761
     8  C    0.279690   0.426869
     9  C   -0.182647   0.102107
    10  C   -0.209799   0.057223
    11  H    0.284646  -0.007324
    12  H    0.286566  -0.009297
    13  H    0.295001  -0.007150
    14  H    0.299225  -0.005550
    15  H    0.474854  -0.008170
 Sum of Mulliken charges =  -0.00000   2.00000
 Mulliken charges and spin densities with hydrogens summed into heavy atoms:
               1          2
     1  O   -0.043971   0.190483
     2  O   -0.444730   0.214092
     3  O   -0.444046   0.213927
     4  N    0.084872   0.183627
     5  C    0.293147   0.457385
     6  C    0.035837   0.059523
     7  C    0.037420   0.107463
     8  C    0.279690   0.426869
     9  C    0.112354   0.094957
    10  C    0.089426   0.051674
 Electronic spatial extent (au):  <R**2>=           1921.3816
 Charge=             -0.0000 electrons
 Dipole moment (field-independent basis, Debye):
    X=             13.8002    Y=             -2.3014    Z=              0.0965  Tot=             13.9911
 Quadrupole moment (field-independent basis, Debye-Ang):
   XX=           -100.0556   YY=            -51.0687   ZZ=            -58.1075
   XY=             -3.8315   XZ=             -0.3614   YZ=             -0.0127
 Traceless Quadrupole moment (field-independent basis, Debye-Ang):
   XX=            -30.3117   YY=             18.6752   ZZ=             11.6364
   XY=             -3.8315   XZ=             -0.3614   YZ=             -0.0127
 Octapole moment (field-independent basis, Debye-Ang**2):
  XXX=            433.3500  YYY=            -10.0413  ZZZ=              1.7476  XYY=             92.6242
  XXY=            -22.4586  XXZ=              2.3863  XZZ=             65.6453  YZZ=             -2.1612
  YYZ=              0.7682  XYZ=             -0.1088
 Hexadecapole moment (field-independent basis, Debye-Ang**3):
 XXXX=          -2764.5664 YYYY=           -340.3555 ZZZZ=            -56.3764 XXXY=              3.4549
 XXXZ=            -14.6362 YYYX=             26.0809 YYYZ=              0.1112 ZZZX=             -7.2586
 ZZZY=             -0.0361 XXYY=           -442.7078 XXZZ=           -320.1506 YYZZ=            -80.7759
 XXYZ=             -0.1435 YYXZ=             -2.9250 ZZXY=              6.9619
 N-N= 4.954560923979D+02 E-N=-2.189304441176D+03  KE= 5.105228155929D+02
 Unable to Open any file for archive entry.
 1\1\GINC-SE075\SP\UM062X TDA-FC\6-311G(d)\C6H5N1O3(3)\KEIGHAN\07-Jun-2
 024\0\\# M062X/6-311g* TDA=(triplet,root=1) scrf=(solvent=water) int=u
 ltrafine Nosymm geom=checkpoint\\4-nitrophenol triplet state calculati
 on\\0,3\O,0,2.2417307241,0.0061233134,0.0166774458\O,0,-3.8847235624,1
 .1982829053,-0.0300041796\O,0,-3.947249591,-0.9655975585,-0.0327835537
 \N,0,-3.3328361802,0.0995230042,-0.0271297636\C,0,-1.8756060605,0.0579
 220577,-0.0159693331\C,0,-1.1553604602,1.2550016109,-0.0089864739\C,0,
 -1.2269162054,-1.1769887498,-0.0122988316\C,0,0.8916774757,-0.02137021
 85,0.0056376432\C,0,0.2267344565,1.2141210888,0.001727016\C,0,0.157497
 3496,-1.2165565935,-0.0014629513\H,0,-1.6820948354,2.1991773134,-0.012
 202652\H,0,-1.8065324867,-2.0896144137,-0.0180242772\H,0,0.8108883144,
 2.1264294378,0.007064145\H,0,0.6725028755,-2.1713907055,0.001294126\H,
 0,2.6052981859,-0.888842492,0.0154316401\\Version=ES64L-G16RevC.01\HF=
 -511.778128\S2=2.007485\S2-1=0.\S2A=2.00003\RMSD=8.039e-09\PG=C01 [X(C
 6H5N1O3)]\\@
 The archive entry for this job was punched.


 ACCORDING TO HEN3RY, LIFE IS MUCH LIKE A SEWER........
 YOU GET OUT OF IT JUST WHAT YOU PUT INTO IT...........
                         TOM LEHRER - (THE 3 IS SILENT)
 Job cpu time:       0 days  1 hours  3 minutes  4.5 seconds.
 Elapsed time:       0 days  0 hours 16 minutes  4.4 seconds.
 File lengths (MBytes):  RWF=    284 Int=      0 D2E=      0 Chk=     13 Scr=      1
 Normal termination of Gaussian 16 at Fri Jun  7 16:54:18 2024.
