 Entering Gaussian System, Link 0=g16
 Initial command:
 /arc/software/Gaussian/g16.c01/l1.exe "/tmp/slurm/1185648/Gau-29702.inp" -scrdir="/tmp/slurm/1185648/"
 Entering Link 1 = /arc/software/Gaussian/g16.c01/l1.exe PID=     29703.
  
 Copyright (c) 1988-2019, Gaussian, Inc.  All Rights Reserved.
  
 This is part of the Gaussian(R) 16 program.  It is based on
 the Gaussian(R) 09 system (copyright 2009, Gaussian, Inc.),
 the Gaussian(R) 03 system (copyright 2003, Gaussian, Inc.),
 the Gaussian(R) 98 system (copyright 1998, Gaussian, Inc.),
 the Gaussian(R) 94 system (copyright 1995, Gaussian, Inc.),
 the Gaussian 92(TM) system (copyright 1992, Gaussian, Inc.),
 the Gaussian 90(TM) system (copyright 1990, Gaussian, Inc.),
 the Gaussian 88(TM) system (copyright 1988, Gaussian, Inc.),
 the Gaussian 86(TM) system (copyright 1986, Carnegie Mellon
 University), and the Gaussian 82(TM) system (copyright 1983,
 Carnegie Mellon University). Gaussian is a federally registered
 trademark of Gaussian, Inc.
  
 This software contains proprietary and confidential information,
 including trade secrets, belonging to Gaussian, Inc.
  
 This software is provided under written license and may be
 used, copied, transmitted, or stored only in accord with that
 written license.
  
 The following legend is applicable only to US Government
 contracts under FAR:
  
                    RESTRICTED RIGHTS LEGEND
  
 Use, reproduction and disclosure by the US Government is
 subject to restrictions as set forth in subparagraphs (a)
 and (c) of the Commercial Computer Software - Restricted
 Rights clause in FAR 52.227-19.
  
 Gaussian, Inc.
 340 Quinnipiac St., Bldg. 40, Wallingford CT 06492
  
  
 ---------------------------------------------------------------
 Warning -- This program may not be used in any manner that
 competes with the business of Gaussian, Inc. or will provide
 assistance to any competitor of Gaussian, Inc.  The licensee
 of this program is prohibited from giving any competitor of
 Gaussian, Inc. access to this program.  By using this program,
 the user acknowledges that Gaussian, Inc. is engaged in the
 business of creating and licensing software in the field of
 computational chemistry and represents and warrants to the
 licensee that it is not a competitor of Gaussian, Inc. and that
 it will not use this program in any manner prohibited above.
 ---------------------------------------------------------------
  

 Cite this work as:
 Gaussian 16, Revision C.01,
 M. J. Frisch, G. W. Trucks, H. B. Schlegel, G. E. Scuseria, 
 M. A. Robb, J. R. Cheeseman, G. Scalmani, V. Barone, 
 G. A. Petersson, H. Nakatsuji, X. Li, M. Caricato, A. V. Marenich, 
 J. Bloino, B. G. Janesko, R. Gomperts, B. Mennucci, H. P. Hratchian, 
 J. V. Ortiz, A. F. Izmaylov, J. L. Sonnenberg, D. Williams-Young, 
 F. Ding, F. Lipparini, F. Egidi, J. Goings, B. Peng, A. Petrone, 
 T. Henderson, D. Ranasinghe, V. G. Zakrzewski, J. Gao, N. Rega, 
 G. Zheng, W. Liang, M. Hada, M. Ehara, K. Toyota, R. Fukuda, 
 J. Hasegawa, M. Ishida, T. Nakajima, Y. Honda, O. Kitao, H. Nakai, 
 T. Vreven, K. Throssell, J. A. Montgomery, Jr., J. E. Peralta, 
 F. Ogliaro, M. J. Bearpark, J. J. Heyd, E. N. Brothers, K. N. Kudin, 
 V. N. Staroverov, T. A. Keith, R. Kobayashi, J. Normand, 
 K. Raghavachari, A. P. Rendell, J. C. Burant, S. S. Iyengar, 
 J. Tomasi, M. Cossi, J. M. Millam, M. Klene, C. Adamo, R. Cammi, 
 J. W. Ochterski, R. L. Martin, K. Morokuma, O. Farkas, 
 J. B. Foresman, and D. J. Fox, Gaussian, Inc., Wallingford CT, 2019.
 
 ******************************************
 Gaussian 16:  ES64L-G16RevC.01  3-Jul-2019
                14-Jun-2024 
 ******************************************
 %chk=ground_state_opt.chk
 %mem=128GB
 %nprocshared=4
 Will use up to    4 processors via shared memory.
 ------------------------------------------------------------
 #opt B3LYP/LANL2DZ scrf=(solvent=water) int=ultrafine Nosymm
 ------------------------------------------------------------
 1/18=20,19=15,26=6,38=1/1,3;
 2/9=110,12=2,15=1,17=6,18=5,40=1/2;
 3/5=6,6=3,11=2,25=1,30=1,70=2201,71=1,72=1,74=-5,75=-5/1,2,3;
 4//1;
 5/5=2,38=5,53=1/2;
 6/7=2,8=2,9=2,10=2,28=1/1;
 7/30=1/1,2,3,16;
 1/18=20,19=15,26=6/3(2);
 2/9=110,15=1/2;
 99//99;
 2/9=110,15=1/2;
 3/5=6,6=3,11=2,25=1,30=1,70=2205,71=1,72=1,74=-5,75=-5/1,2,3;
 4/5=5,16=3,69=1/1;
 5/5=2,38=5,53=1/2;
 7/30=1/1,2,3,16;
 1/18=20,19=15,26=6/3(-5);
 2/9=110,15=1/2;
 6/7=2,8=2,9=2,10=2,19=2,28=1/1;
 99/9=1/99;
 ----------------------------------------------
 Rose Bengal ground state geometry optimization
 ----------------------------------------------
 Symbolic Z-matrix:
 Charge =  0 Multiplicity = 1
 I                     0.9944    0.13357  -0.13676 
 I                     1.12643   4.81433  -0.04477 
 I                     6.1472   -3.10719   0.07305 
 I                     6.44162   7.83577  -0.29325 
 Cl                    7.31008   2.1801   -2.79591 
 Cl                    10.71023   2.5836    2.49494 
 Cl                    10.44113   1.90729  -2.89569 
 Cl                    12.12895   2.20766  -0.26022 
 O                     3.21271   2.40331  -0.1526 
 O                     2.98821  -2.36528  -0.04724 
 O                     3.31124   7.14719   0.01227 
 O                     8.14199   3.40244   3.36574 
 O                     6.54985   2.01488   2.63359 
 C                     6.06191   2.42082  -0.07574 
 C                     5.26842   1.15667  -0.03548 
 C                     5.37405   3.59434  -0.14603 
 C                     7.56809   2.40648  -0.078 
 C                     3.87424   1.2072   -0.0859 
 C                     3.90189   3.60689  -0.1303 
 C                     5.88898  -0.10271   0.03516 
 C                     8.32948   2.50943   1.12404 
 C                     6.06266   4.88275  -0.25335 
 C                     3.10588   0.02685  -0.07624 
 C                     8.23899   2.25512  -1.31958 
 C                     3.20796   4.76257  -0.09254 
 C                     5.13203  -1.27827   0.0264 
 C                     3.73934  -1.22002  -0.02985 
 C                     5.40952   6.05333  -0.20437 
 C                     9.73896   2.45894   1.05312 
 C                     3.91859   6.08371  -0.07893 
 C                     9.63967   2.17198  -1.37204 
 C                     10.38669   2.28605  -0.19044 
 C                     7.60671   2.59368   2.43509 
 H                     6.9697   -0.18256   0.09843 
 H                     7.13898   4.90178  -0.38096 
 H                     3.59038  -3.1301   -0.01695 
 H                     9.07936   3.6568    3.25917 
 

 GradGradGradGradGradGradGradGradGradGradGradGradGradGradGradGradGradGrad
 Berny optimization.
 Initialization pass.
                           ----------------------------
                           !    Initial Parameters    !
                           ! (Angstroms and Degrees)  !
 --------------------------                            --------------------------
 ! Name  Definition              Value          Derivative Info.                !
 --------------------------------------------------------------------------------
 ! R1    R(1,23)                 2.115          estimate D2E/DX2                !
 ! R2    R(2,25)                 2.0827         estimate D2E/DX2                !
 ! R3    R(3,26)                 2.0923         estimate D2E/DX2                !
 ! R4    R(4,28)                 2.0616         estimate D2E/DX2                !
 ! R5    R(5,24)                 1.7459         estimate D2E/DX2                !
 ! R6    R(6,29)                 1.7429         estimate D2E/DX2                !
 ! R7    R(7,31)                 1.7418         estimate D2E/DX2                !
 ! R8    R(8,32)                 1.7454         estimate D2E/DX2                !
 ! R9    R(9,18)                 1.3685         estimate D2E/DX2                !
 ! R10   R(9,19)                 1.3871         estimate D2E/DX2                !
 ! R11   R(10,27)                1.3697         estimate D2E/DX2                !
 ! R12   R(10,36)                0.9739         estimate D2E/DX2                !
 ! R13   R(11,30)                1.2281         estimate D2E/DX2                !
 ! R14   R(12,33)                1.3441         estimate D2E/DX2                !
 ! R15   R(12,37)                0.9771         estimate D2E/DX2                !
 ! R16   R(13,33)                1.2212         estimate D2E/DX2                !
 ! R17   R(14,15)                1.4931         estimate D2E/DX2                !
 ! R18   R(14,16)                1.3621         estimate D2E/DX2                !
 ! R19   R(14,17)                1.5062         estimate D2E/DX2                !
 ! R20   R(15,18)                1.396          estimate D2E/DX2                !
 ! R21   R(15,20)                1.4057         estimate D2E/DX2                !
 ! R22   R(16,19)                1.4723         estimate D2E/DX2                !
 ! R23   R(16,22)                1.4648         estimate D2E/DX2                !
 ! R24   R(17,21)                1.4266         estimate D2E/DX2                !
 ! R25   R(17,24)                1.4193         estimate D2E/DX2                !
 ! R26   R(18,23)                1.4084         estimate D2E/DX2                !
 ! R27   R(19,25)                1.3485         estimate D2E/DX2                !
 ! R28   R(20,26)                1.3982         estimate D2E/DX2                !
 ! R29   R(20,34)                1.0855         estimate D2E/DX2                !
 ! R30   R(21,29)                1.4122         estimate D2E/DX2                !
 ! R31   R(21,33)                1.4994         estimate D2E/DX2                !
 ! R32   R(22,28)                1.3414         estimate D2E/DX2                !
 ! R33   R(22,35)                1.084          estimate D2E/DX2                !
 ! R34   R(23,27)                1.3993         estimate D2E/DX2                !
 ! R35   R(24,31)                1.4041         estimate D2E/DX2                !
 ! R36   R(25,30)                1.5002         estimate D2E/DX2                !
 ! R37   R(26,27)                1.395          estimate D2E/DX2                !
 ! R38   R(28,30)                1.4965         estimate D2E/DX2                !
 ! R39   R(29,32)                1.4128         estimate D2E/DX2                !
 ! R40   R(31,32)                1.4026         estimate D2E/DX2                !
 ! A1    A(18,9,19)            121.1603         estimate D2E/DX2                !
 ! A2    A(27,10,36)           108.4914         estimate D2E/DX2                !
 ! A3    A(33,12,37)           117.591          estimate D2E/DX2                !
 ! A4    A(15,14,16)           117.5466         estimate D2E/DX2                !
 ! A5    A(15,14,17)           121.5603         estimate D2E/DX2                !
 ! A6    A(16,14,17)           120.8713         estimate D2E/DX2                !
 ! A7    A(14,15,18)           119.9422         estimate D2E/DX2                !
 ! A8    A(14,15,20)           121.686          estimate D2E/DX2                !
 ! A9    A(18,15,20)           118.3665         estimate D2E/DX2                !
 ! A10   A(14,16,19)           120.7808         estimate D2E/DX2                !
 ! A11   A(14,16,22)           121.6134         estimate D2E/DX2                !
 ! A12   A(19,16,22)           117.6028         estimate D2E/DX2                !
 ! A13   A(14,17,21)           122.1224         estimate D2E/DX2                !
 ! A14   A(14,17,24)           118.3586         estimate D2E/DX2                !
 ! A15   A(21,17,24)           119.5036         estimate D2E/DX2                !
 ! A16   A(9,18,15)            121.0756         estimate D2E/DX2                !
 ! A17   A(9,18,23)            117.9767         estimate D2E/DX2                !
 ! A18   A(15,18,23)           120.947          estimate D2E/DX2                !
 ! A19   A(9,19,16)            119.2901         estimate D2E/DX2                !
 ! A20   A(9,19,25)            119.2343         estimate D2E/DX2                !
 ! A21   A(16,19,25)           121.4756         estimate D2E/DX2                !
 ! A22   A(15,20,26)           120.9253         estimate D2E/DX2                !
 ! A23   A(15,20,34)           120.5524         estimate D2E/DX2                !
 ! A24   A(26,20,34)           118.5223         estimate D2E/DX2                !
 ! A25   A(17,21,29)           119.1958         estimate D2E/DX2                !
 ! A26   A(17,21,33)           118.9152         estimate D2E/DX2                !
 ! A27   A(29,21,33)           121.8048         estimate D2E/DX2                !
 ! A28   A(16,22,28)           122.4121         estimate D2E/DX2                !
 ! A29   A(16,22,35)           119.3946         estimate D2E/DX2                !
 ! A30   A(28,22,35)           118.1929         estimate D2E/DX2                !
 ! A31   A(1,23,18)            120.1416         estimate D2E/DX2                !
 ! A32   A(1,23,27)            119.857          estimate D2E/DX2                !
 ! A33   A(18,23,27)           120.0012         estimate D2E/DX2                !
 ! A34   A(5,24,17)            119.5242         estimate D2E/DX2                !
 ! A35   A(5,24,31)            119.7766         estimate D2E/DX2                !
 ! A36   A(17,24,31)           120.6984         estimate D2E/DX2                !
 ! A37   A(2,25,19)            122.427          estimate D2E/DX2                !
 ! A38   A(2,25,30)            116.8288         estimate D2E/DX2                !
 ! A39   A(19,25,30)           120.744          estimate D2E/DX2                !
 ! A40   A(3,26,20)            118.1718         estimate D2E/DX2                !
 ! A41   A(3,26,27)            121.4514         estimate D2E/DX2                !
 ! A42   A(20,26,27)           120.3715         estimate D2E/DX2                !
 ! A43   A(10,27,23)           119.7599         estimate D2E/DX2                !
 ! A44   A(10,27,26)           120.8678         estimate D2E/DX2                !
 ! A45   A(23,27,26)           119.3714         estimate D2E/DX2                !
 ! A46   A(4,28,22)            120.6084         estimate D2E/DX2                !
 ! A47   A(4,28,30)            119.001          estimate D2E/DX2                !
 ! A48   A(22,28,30)           120.3902         estimate D2E/DX2                !
 ! A49   A(6,29,21)            120.8042         estimate D2E/DX2                !
 ! A50   A(6,29,32)            118.7785         estimate D2E/DX2                !
 ! A51   A(21,29,32)           120.4107         estimate D2E/DX2                !
 ! A52   A(11,30,25)           121.9392         estimate D2E/DX2                !
 ! A53   A(11,30,28)           121.0987         estimate D2E/DX2                !
 ! A54   A(25,30,28)           116.9548         estimate D2E/DX2                !
 ! A55   A(7,31,24)            120.045          estimate D2E/DX2                !
 ! A56   A(7,31,32)            120.2798         estimate D2E/DX2                !
 ! A57   A(24,31,32)           119.6702         estimate D2E/DX2                !
 ! A58   A(8,32,29)            119.8905         estimate D2E/DX2                !
 ! A59   A(8,32,31)            119.6241         estimate D2E/DX2                !
 ! A60   A(29,32,31)           120.485          estimate D2E/DX2                !
 ! A61   A(12,33,13)           121.1493         estimate D2E/DX2                !
 ! A62   A(12,33,21)           116.5661         estimate D2E/DX2                !
 ! A63   A(13,33,21)           122.1841         estimate D2E/DX2                !
 ! D1    D(19,9,18,15)          -2.0354         estimate D2E/DX2                !
 ! D2    D(19,9,18,23)         178.2703         estimate D2E/DX2                !
 ! D3    D(18,9,19,16)           5.0426         estimate D2E/DX2                !
 ! D4    D(18,9,19,25)        -174.853          estimate D2E/DX2                !
 ! D5    D(36,10,27,23)        179.5179         estimate D2E/DX2                !
 ! D6    D(36,10,27,26)         -0.1345         estimate D2E/DX2                !
 ! D7    D(37,12,33,13)        164.7432         estimate D2E/DX2                !
 ! D8    D(37,12,33,21)        -18.8247         estimate D2E/DX2                !
 ! D9    D(16,14,15,18)          0.7503         estimate D2E/DX2                !
 ! D10   D(16,14,15,20)        179.9008         estimate D2E/DX2                !
 ! D11   D(17,14,15,18)       -177.5674         estimate D2E/DX2                !
 ! D12   D(17,14,15,20)          1.5831         estimate D2E/DX2                !
 ! D13   D(15,14,16,19)          2.2773         estimate D2E/DX2                !
 ! D14   D(15,14,16,22)       -177.0855         estimate D2E/DX2                !
 ! D15   D(17,14,16,19)       -179.3927         estimate D2E/DX2                !
 ! D16   D(17,14,16,22)          1.2444         estimate D2E/DX2                !
 ! D17   D(15,14,17,21)        -93.4723         estimate D2E/DX2                !
 ! D18   D(15,14,17,24)         85.0956         estimate D2E/DX2                !
 ! D19   D(16,14,17,21)         88.2655         estimate D2E/DX2                !
 ! D20   D(16,14,17,24)        -93.1666         estimate D2E/DX2                !
 ! D21   D(14,15,18,9)          -0.963          estimate D2E/DX2                !
 ! D22   D(14,15,18,23)        178.7222         estimate D2E/DX2                !
 ! D23   D(20,15,18,9)         179.8585         estimate D2E/DX2                !
 ! D24   D(20,15,18,23)         -0.4563         estimate D2E/DX2                !
 ! D25   D(14,15,20,26)       -177.8151         estimate D2E/DX2                !
 ! D26   D(14,15,20,34)          2.2201         estimate D2E/DX2                !
 ! D27   D(18,15,20,26)          1.3483         estimate D2E/DX2                !
 ! D28   D(18,15,20,34)       -178.6165         estimate D2E/DX2                !
 ! D29   D(14,16,19,9)          -5.209          estimate D2E/DX2                !
 ! D30   D(14,16,19,25)        174.6842         estimate D2E/DX2                !
 ! D31   D(22,16,19,9)         174.1788         estimate D2E/DX2                !
 ! D32   D(22,16,19,25)         -5.9281         estimate D2E/DX2                !
 ! D33   D(14,16,22,28)       -173.9451         estimate D2E/DX2                !
 ! D34   D(14,16,22,35)          6.2897         estimate D2E/DX2                !
 ! D35   D(19,16,22,28)          6.6726         estimate D2E/DX2                !
 ! D36   D(19,16,22,35)       -173.0927         estimate D2E/DX2                !
 ! D37   D(14,17,21,29)        178.5758         estimate D2E/DX2                !
 ! D38   D(14,17,21,33)          1.8526         estimate D2E/DX2                !
 ! D39   D(24,17,21,29)          0.0239         estimate D2E/DX2                !
 ! D40   D(24,17,21,33)       -176.6994         estimate D2E/DX2                !
 ! D41   D(14,17,24,5)           3.329          estimate D2E/DX2                !
 ! D42   D(14,17,24,31)       -176.9859         estimate D2E/DX2                !
 ! D43   D(21,17,24,5)        -178.0646         estimate D2E/DX2                !
 ! D44   D(21,17,24,31)          1.6205         estimate D2E/DX2                !
 ! D45   D(9,18,23,1)           -0.8302         estimate D2E/DX2                !
 ! D46   D(9,18,23,27)         179.0121         estimate D2E/DX2                !
 ! D47   D(15,18,23,1)         179.475          estimate D2E/DX2                !
 ! D48   D(15,18,23,27)         -0.6826         estimate D2E/DX2                !
 ! D49   D(9,19,25,2)            0.6957         estimate D2E/DX2                !
 ! D50   D(9,19,25,30)        -179.4927         estimate D2E/DX2                !
 ! D51   D(16,19,25,2)        -179.1975         estimate D2E/DX2                !
 ! D52   D(16,19,25,30)          0.6141         estimate D2E/DX2                !
 ! D53   D(15,20,26,3)         178.0679         estimate D2E/DX2                !
 ! D54   D(15,20,26,27)         -1.1056         estimate D2E/DX2                !
 ! D55   D(34,20,26,3)          -1.9666         estimate D2E/DX2                !
 ! D56   D(34,20,26,27)        178.86           estimate D2E/DX2                !
 ! D57   D(17,21,29,6)         179.888          estimate D2E/DX2                !
 ! D58   D(17,21,29,32)         -1.0541         estimate D2E/DX2                !
 ! D59   D(33,21,29,6)          -3.4872         estimate D2E/DX2                !
 ! D60   D(33,21,29,32)        175.5708         estimate D2E/DX2                !
 ! D61   D(17,21,33,12)       -142.7374         estimate D2E/DX2                !
 ! D62   D(17,21,33,13)         33.6546         estimate D2E/DX2                !
 ! D63   D(29,21,33,12)         40.6285         estimate D2E/DX2                !
 ! D64   D(29,21,33,13)       -142.9794         estimate D2E/DX2                !
 ! D65   D(16,22,28,4)         177.7963         estimate D2E/DX2                !
 ! D66   D(16,22,28,30)         -1.97           estimate D2E/DX2                !
 ! D67   D(35,22,28,4)          -2.4358         estimate D2E/DX2                !
 ! D68   D(35,22,28,30)        177.7979         estimate D2E/DX2                !
 ! D69   D(1,23,27,10)           1.1249         estimate D2E/DX2                !
 ! D70   D(1,23,27,26)        -179.2175         estimate D2E/DX2                !
 ! D71   D(18,23,27,10)       -178.7179         estimate D2E/DX2                !
 ! D72   D(18,23,27,26)          0.9397         estimate D2E/DX2                !
 ! D73   D(5,24,31,7)           -3.3461         estimate D2E/DX2                !
 ! D74   D(5,24,31,32)         177.4631         estimate D2E/DX2                !
 ! D75   D(17,24,31,7)         176.9697         estimate D2E/DX2                !
 ! D76   D(17,24,31,32)         -2.2211         estimate D2E/DX2                !
 ! D77   D(2,25,30,11)           2.9595         estimate D2E/DX2                !
 ! D78   D(2,25,30,28)        -176.0742         estimate D2E/DX2                !
 ! D79   D(19,25,30,11)       -176.8624         estimate D2E/DX2                !
 ! D80   D(19,25,30,28)          4.104          estimate D2E/DX2                !
 ! D81   D(3,26,27,10)           0.4493         estimate D2E/DX2                !
 ! D82   D(3,26,27,23)        -179.2044         estimate D2E/DX2                !
 ! D83   D(20,26,27,10)        179.5953         estimate D2E/DX2                !
 ! D84   D(20,26,27,23)         -0.0585         estimate D2E/DX2                !
 ! D85   D(4,28,30,11)          -2.2424         estimate D2E/DX2                !
 ! D86   D(4,28,30,25)         176.7999         estimate D2E/DX2                !
 ! D87   D(22,28,30,11)        177.5276         estimate D2E/DX2                !
 ! D88   D(22,28,30,25)         -3.4301         estimate D2E/DX2                !
 ! D89   D(6,29,32,8)           -0.2399         estimate D2E/DX2                !
 ! D90   D(6,29,32,31)         179.5411         estimate D2E/DX2                !
 ! D91   D(21,29,32,8)        -179.3168         estimate D2E/DX2                !
 ! D92   D(21,29,32,31)          0.4643         estimate D2E/DX2                !
 ! D93   D(7,31,32,8)            1.769          estimate D2E/DX2                !
 ! D94   D(7,31,32,29)        -178.0127         estimate D2E/DX2                !
 ! D95   D(24,31,32,8)        -179.0421         estimate D2E/DX2                !
 ! D96   D(24,31,32,29)          1.1762         estimate D2E/DX2                !
 --------------------------------------------------------------------------------
 Trust Radius=3.00D-01 FncErr=5.00D-06 GrdErr=5.00D-06 EigMax=2.50D+02 EigMin=1.00D-04
 Number of steps in this run=    209 maximum allowed number of steps=    222.
 GradGradGradGradGradGradGradGradGradGradGradGradGradGradGradGradGradGrad

                          Input orientation:                          
 ---------------------------------------------------------------------
 Center     Atomic      Atomic             Coordinates (Angstroms)
 Number     Number       Type             X           Y           Z
 ---------------------------------------------------------------------
      1         53           0        0.994400    0.133570   -0.136760
      2         53           0        1.126430    4.814330   -0.044770
      3         53           0        6.147200   -3.107190    0.073050
      4         53           0        6.441620    7.835770   -0.293250
      5         17           0        7.310080    2.180100   -2.795910
      6         17           0       10.710230    2.583600    2.494940
      7         17           0       10.441130    1.907290   -2.895690
      8         17           0       12.128950    2.207660   -0.260220
      9          8           0        3.212710    2.403310   -0.152600
     10          8           0        2.988210   -2.365280   -0.047240
     11          8           0        3.311240    7.147190    0.012270
     12          8           0        8.141990    3.402440    3.365740
     13          8           0        6.549850    2.014880    2.633590
     14          6           0        6.061910    2.420820   -0.075740
     15          6           0        5.268420    1.156670   -0.035480
     16          6           0        5.374050    3.594340   -0.146030
     17          6           0        7.568090    2.406480   -0.078000
     18          6           0        3.874240    1.207200   -0.085900
     19          6           0        3.901890    3.606890   -0.130300
     20          6           0        5.888980   -0.102710    0.035160
     21          6           0        8.329480    2.509430    1.124040
     22          6           0        6.062660    4.882750   -0.253350
     23          6           0        3.105880    0.026850   -0.076240
     24          6           0        8.238990    2.255120   -1.319580
     25          6           0        3.207960    4.762570   -0.092540
     26          6           0        5.132030   -1.278270    0.026400
     27          6           0        3.739340   -1.220020   -0.029850
     28          6           0        5.409520    6.053330   -0.204370
     29          6           0        9.738960    2.458940    1.053120
     30          6           0        3.918590    6.083710   -0.078930
     31          6           0        9.639670    2.171980   -1.372040
     32          6           0       10.386690    2.286050   -0.190440
     33          6           0        7.606710    2.593680    2.435090
     34          1           0        6.969700   -0.182560    0.098430
     35          1           0        7.138980    4.901780   -0.380960
     36          1           0        3.590380   -3.130100   -0.016950
     37          1           0        9.079360    3.656800    3.259170
 ---------------------------------------------------------------------
                    Distance matrix (angstroms):
                    1          2          3          4          5
     1  I    0.000000
     2  I    4.683525   0.000000
     3  I    6.090804   9.379365   0.000000
     4  I    9.435072   6.118994  10.953047   0.000000
     5  Cl   7.151725   7.262607   6.126880   6.245329   0.000000
     6  Cl  10.359819  10.162456   7.685824   7.319858   6.302137
     7  Cl   9.999924  10.165740   7.238526   7.610233   3.144496
     8  Cl  11.326751  11.309138   8.008747   8.001402   5.445364
     9  O    3.173778   3.190174   6.247220   6.321176   4.881122
    10  O    3.198053   7.417077   3.247171  10.772557   6.847936
    11  O    7.387884   3.196699  10.639486   3.219746   6.967681
    12  O    8.604712   7.927364   7.562822   5.994488   6.336570
    13  O    6.486693   6.665134   5.740566   6.516200   5.484954
    14  C    5.560116   5.485327   5.530670   5.432603   3.002532
    15  C    4.395934   5.525816   4.354829   6.786252   3.582703
    16  C    5.581966   4.420510   6.749538   4.376198   3.573535
    17  C    6.955787   6.877051   5.695814   5.549095   2.739498
    18  C    3.073881   4.534704   4.879096   7.111426   4.482821
    19  C    4.529624   3.027937   7.082488   4.935606   4.555981
    20  C    4.903295   6.845842   3.015794   7.964467   3.904575
    21  C    7.812664   7.652621   6.116645   5.826030   4.063698
    22  C    6.946622   4.941109   7.997051   2.977504   3.914714
    23  C    2.115041   5.180654   4.369682   8.494321   5.450540
    24  C    7.640950   7.665716   5.921940   5.952104   1.745867
    25  C    5.131222   2.082721   8.402361   4.465579   5.550203
    26  C    4.374917   7.291754   2.092294   9.213193   4.966856
    27  C    3.062406   6.575781   3.061011   9.454048   5.653502
    28  C    7.385216   4.461553   9.194360   2.061607   5.032904
    29  C    9.126362   8.996049   6.696498   6.449455   4.559851
    30  C    6.630113   3.067352   9.458459   3.079176   5.841434
    31  C    8.967816   9.012154   6.492709   6.593165   2.730286
    32  C    9.635931   9.600304   6.865110   6.809812   4.033017
    33  C    7.509274   7.285261   6.341082   6.023353   5.255702
    34  H    5.988277   7.689813   3.038192   8.045241   3.751696
    35  H    7.781473   6.022577   8.082905   3.017002   3.642637
    36  H    4.171931   8.317800   2.558506  11.333853   7.053865
    37  H    9.450506   8.689361   8.031219   6.086144   6.478811
                    6          7          8          9         10
     6  Cl   0.000000
     7  Cl   5.439550   0.000000
     8  Cl   3.121699   3.143988   0.000000
     9  O    7.953287   7.747299   8.919036   0.000000
    10  O    9.517546   9.050665  10.223026   4.775034   0.000000
    11  O    9.040744   9.313867  10.110649   4.747767   9.518139
    12  O    2.832781   6.835717   5.520048   6.137978   8.454376
    13  O    4.201360   6.762143   6.287898   4.364658   6.249634
    14  C    5.314299   5.233870   6.073586   2.850290   5.688163
    15  C    6.168667   5.958285   6.944203   2.407026   4.195668
    16  C    6.039134   6.006835   6.896709   2.467790   6.420207
    17  C    4.065026   4.054988   4.568827   4.356020   6.614071
    18  C    7.435454   7.176983   8.316943   1.368485   3.680918
    19  C    7.368345   7.300526   8.346211   1.387109   6.042228
    20  C    6.042452   5.775123   6.660502   3.671214   3.679739
    21  C    2.748243   4.580379   4.055023   5.274695   7.325562
    22  C    5.868483   5.916614   6.629934   3.778887   7.875828
    23  C    8.424611   8.080300   9.284696   2.380085   2.395198
    24  C    4.556917   2.730298   4.031908   5.162102   7.108983
    25  C    8.229643   8.266137   9.281150   2.360029   7.131380
    26  C    7.219698   6.846382   7.822452   4.155702   2.404782
    27  C    8.332790   7.931399   9.065739   3.663458   1.369715
    28  C    6.886423   7.053364   7.742289   4.260434   8.761303
    29  C    1.742914   4.048513   2.738623   6.636927   8.369977
    30  C    8.062379   8.241368   9.081115   3.748205   8.500120
    31  C    4.033493   1.741812   2.726524   6.545713   8.159886
    32  C    2.721117   2.732179   1.745418   7.175038   8.740302
    33  C    3.104113   6.076371   5.278670   5.102903   7.216910
    34  H    5.233208   5.038160   5.697336   4.567791   4.542879
    35  H    5.137955   5.118108   5.672095   4.659409   8.375585
    36  H    9.468275   8.977484  10.072638   5.547942   0.973897
    37  H    2.096555   6.541980   4.877101   6.901376   9.181498
                   11         12         13         14         15
    11  O    0.000000
    12  O    6.971733   0.000000
    13  O    6.610637   2.235235   0.000000
    14  C    5.469233   4.139335   2.782686   0.000000
    15  C    6.302314   4.986901   3.082616   1.493092   0.000000
    16  C    4.111324   4.475583   3.406389   1.362072   2.442461
    17  C    6.372068   3.630515   2.922821   1.506250   2.617693
    18  C    5.967419   5.911564   3.899598   2.501775   1.396006
    19  C    3.592063   5.499322   4.145513   2.464838   2.807129
    20  C    7.694564   5.334313   3.416544   2.531878   1.405746
    21  C    6.922975   2.420297   2.385457   2.566943   3.541826
    22  C    3.573311   4.428628   4.098348   2.468328   3.816013
    23  C    7.123851   6.971674   4.812107   3.803841   2.440232
    24  C    7.070282   4.824725   4.305631   2.512821   3.417571
    25  C    2.389156   6.176917   5.113689   3.691762   4.153464
    26  C    8.619968   6.490000   4.433113   3.815544   2.439542
    27  C    8.378260   7.230525   5.045538   4.318814   2.826088
    28  C    2.376182   5.219128   5.065910   3.692870   4.901603
    29  C    8.023630   2.964577   3.586851   3.846619   4.781912
    30  C    1.228080   6.073884   5.553078   4.243889   5.108782
    31  C    8.168112   5.118949   5.061298   3.813487   4.682422
    32  C    8.586837   4.351025   4.771794   4.328399   5.243682
    33  C    6.712345   1.344145   1.221214   2.953059   3.692738
    34  H    8.192496   4.990171   3.381132   2.762608   2.169291
    35  H    4.455119   4.158342   4.215303   2.721838   4.200500
    36  H   10.281122   8.650655   6.500357   6.076564   4.603538
    37  H    7.483074   0.977097   3.079882   4.664148   5.623934
                   16         17         18         19         20
    16  C    0.000000
    17  C    2.495887   0.000000
    18  C    2.819837   3.883666   0.000000
    19  C    1.472298   3.858075   2.400260   0.000000
    20  C    3.737133   3.021299   2.406179   4.211536   0.000000
    21  C    3.394801   1.426609   4.796762   4.730892   3.736974
    22  C    1.464821   2.903271   4.280992   2.512347   4.996820
    23  C    4.228055   5.057070   1.408438   3.667866   2.788340
    24  C    3.373220   1.419344   4.655228   4.695967   3.594055
    25  C    2.461619   4.956017   3.617268   1.348540   5.556539
    26  C    4.881663   4.418447   2.787868   5.040098   1.398210
    27  C    5.085650   5.273817   2.431612   4.830691   2.423543
    28  C    2.459938   4.239683   5.084889   2.874631   6.179327
    29  C    4.666855   2.448441   6.104028   6.065448   4.735044
    30  C    2.884411   5.180818   4.876717   2.477409   6.493631
    31  C    4.660657   2.453767   5.985411   6.043427   4.606745
    32  C    5.180748   2.823411   6.602034   6.618222   5.097692
    33  C    3.556441   2.520349   4.712648   4.618821   3.997597
    34  H    4.107412   2.663142   3.398129   4.880953   1.085511
    35  H    2.208975   2.549989   4.939181   3.495472   5.174995
    36  H    6.958177   6.817597   4.347126   6.745141   3.801495
    37  H    5.032754   3.870910   6.654570   6.188473   5.891238
                   21         22         23         24         25
    21  C    0.000000
    22  C    3.559259   0.000000
    23  C    5.906765   5.688030   0.000000
    24  C    2.458483   3.574591   5.732356   0.000000
    25  C    5.725965   2.861750   4.736848   5.753625   0.000000
    26  C    5.076925   6.237187   2.412293   4.893844   6.340973
    27  C    6.025748   6.533879   1.399324   5.829824   6.006470
    28  C    4.780174   1.341361   6.453033   4.865798   2.554493
    29  C    1.412166   4.593136   7.154598   2.814455   7.019488
    30  C    5.803324   2.463689   6.111142   5.904504   1.500197
    31  C    2.839170   4.625445   6.997935   1.404126   7.050899
    32  C    2.451503   5.044209   7.624121   2.426629   7.594531
    33  C    1.499449   3.853783   5.757852   3.822558   5.517427
    34  H    3.185544   5.157891   3.873431   3.092593   6.216226
    35  H    3.066864   1.084025   6.334327   3.015931   3.944044
    36  H    7.454209   8.388910   3.194462   7.232359   7.902291
    37  H    2.537234   4.789700   7.744931   4.861675   6.850549
                   26         27         28         29         30
    26  C    0.000000
    27  C    1.395042   0.000000
    28  C    7.340478   7.464689   0.000000
    29  C    6.020357   7.120605   5.765845   0.000000
    30  C    7.462056   7.306094   1.496506   6.949619   0.000000
    31  C    5.846253   6.936932   5.858541   2.444096   7.050143
    32  C    6.353176   7.517019   6.242180   1.412758   7.501398
    33  C    5.188239   5.964628   4.874789   2.544501   5.665936
    34  H    2.140747   3.395292   6.435229   3.944332   6.971863
    35  H    6.510515   7.011224   2.085254   3.844990   3.443703
    36  H    2.409946   1.915923   9.363748   8.377795   9.219862
    37  H    7.098389   7.944611   5.586340   2.595496   6.608052
                   31         32         33         34         35
    31  C    0.000000
    32  C    1.402580   0.000000
    33  C    4.336473   3.836187   0.000000
    34  H    3.851608   4.225317   3.684192   0.000000
    35  H    3.832427   4.174441   3.670999   5.109695   0.000000
    36  H    8.157342   8.692215   7.409795   4.485656   8.788411
    37  H    4.895584   3.935464   1.994500   5.402002   4.308781
                   36         37
    36  H    0.000000
    37  H    9.323297   0.000000
 Symmetry turned off by external request.
 Stoichiometry    C20H4Cl4I4O5
 Framework group  C1[X(C20H4Cl4I4O5)]
 Deg. of freedom   105
 Full point group                 C1      NOp   1
 Rotational constants (GHZ):           0.0439968           0.0418826           0.0239907
 Standard basis: LANL2DZ (5D, 7F)
   297 basis functions,   737 primitive gaussians,   297 cartesian basis functions
   110 alpha electrons      110 beta electrons
       nuclear repulsion energy      2963.4619335493 Hartrees.
 NAtoms=   37 NActive=   37 NUniq=   37 SFac= 1.00D+00 NAtFMM=   60 NAOKFM=F Big=F
 Integral buffers will be    131072 words long.
 Raffenetti 2 integral format.
 Two-electron integral symmetry is turned off.
 ------------------------------------------------------------------------------
 Polarizable Continuum Model (PCM)
 =================================
 Model                : PCM.
 Atomic radii         : UFF (Universal Force Field).
 Polarization charges : Total charges.
 Charge compensation  : None.
 Solution method      : On-the-fly selection.
 Cavity type          : Scaled VdW (van der Waals Surface) (Alpha=1.100).
 Cavity algorithm     : GePol (No added spheres)
                        Default sphere list used, NSphG=   37.
                        Lebedev-Laikov grids with approx.  5.0 points / Ang**2.
                        Smoothing algorithm: York/Karplus (Gamma=1.0000).
                        Polarization charges: spherical gaussians, with
                                              point-specific exponents (IZeta= 3).
                        Self-potential: point-specific (ISelfS= 7).
                        Self-field    : sphere-specific E.n sum rule (ISelfD= 2).
 1st derivatives      : Analytical E(r).r(x)/FMM algorithm (CHGder, D1EAlg=3).
                        Cavity 1st derivative terms included.
 Solvent              : Water, Eps=  78.355300 Eps(inf)=   1.777849
 ------------------------------------------------------------------------------
 One-electron integrals computed using PRISM.
   1 Symmetry operations used in ECPInt.
 ECPInt:  NShTT=   13695 NPrTT=   97308 LenC2=   12734 LenP2D=   52965.
 LDataN:  DoStor=T MaxTD1= 4 Len=   56
 NBasis=   297 RedAO= T EigKep=  1.84D-04  NBF=   297
 NBsUse=   297 1.00D-06 EigRej= -1.00D+00 NBFU=   297
 Defaulting to unpruned grid for atomic number  53.
 ExpMin= 1.05D-01 ExpMax= 7.82D+03 ExpMxC= 2.73D+02 IAcc=3 IRadAn=         5 AccDes= 0.00D+00
 Harris functional with IExCor=  402 and IRadAn=       5 diagonalized for initial guess.
 HarFok:  IExCor=  402 AccDes= 0.00D+00 IRadAn=         5 IDoV= 1 UseB2=F ITyADJ=14
 ICtDFT=  3500011 ScaDFX=  1.000000  1.000000  1.000000  1.000000
 Defaulting to unpruned grid for atomic number  53.
 FoFCou: FMM=F IPFlag=           0 FMFlag=      100000 FMFlg1=           0
         NFxFlg=           0 DoJE=T BraDBF=F KetDBF=T FulRan=T
         wScrn=  0.000000 ICntrl=       500 IOpCl=  0 I1Cent=   200000004 NGrid=           0
         NMat0=    1 NMatS0=      1 NMatT0=    0 NMatD0=    1 NMtDS0=    0 NMtDT0=    0
 Symmetry not used in FoFCou.
 Requested convergence on RMS density matrix=1.00D-08 within 128 cycles.
 Requested convergence on MAX density matrix=1.00D-06.
 Requested convergence on             energy=1.00D-06.
 No special actions if energy rises.
 Defaulting to unpruned grid for atomic number  53.
 Defaulting to unpruned grid for atomic number  53.
 Defaulting to unpruned grid for atomic number  53.
 Defaulting to unpruned grid for atomic number  53.
 Inv3:  Mode=1 IEnd=    43137792.
 Iteration    1 A*A^-1 deviation from unit magnitude is 6.44D-15 for   3773.
 Iteration    1 A*A^-1 deviation from orthogonality  is 1.99D-15 for   1006    121.
 Iteration    1 A^-1*A deviation from unit magnitude is 6.66D-15 for   3773.
 Iteration    1 A^-1*A deviation from orthogonality  is 1.97D-15 for   3748   1404.
 Error on total polarization charges =  0.02239
 SCF Done:  E(RB3LYP) =  -1245.69513961     A.U. after   15 cycles
            NFock= 15  Conv=0.49D-08     -V/T= 2.0644

 **********************************************************************

            Population analysis using the SCF Density.

 **********************************************************************

 Alpha  occ. eigenvalues --  -19.24092 -19.20981 -19.20211 -19.17544 -19.14772
 Alpha  occ. eigenvalues --  -10.38213 -10.32028 -10.31827 -10.31817 -10.31773
 Alpha  occ. eigenvalues --  -10.31621 -10.31567 -10.31430 -10.31307 -10.28700
 Alpha  occ. eigenvalues --  -10.28377 -10.28222 -10.26643 -10.26510 -10.26300
 Alpha  occ. eigenvalues --  -10.25808 -10.25507 -10.25233 -10.24234 -10.24223
 Alpha  occ. eigenvalues --   -1.15332  -1.15291  -1.10918  -1.07676  -1.07356
 Alpha  occ. eigenvalues --   -0.98662  -0.94636  -0.92796  -0.91686  -0.90676
 Alpha  occ. eigenvalues --   -0.88569  -0.87595  -0.85022  -0.83634  -0.80807
 Alpha  occ. eigenvalues --   -0.79917  -0.79053  -0.77483  -0.73438  -0.72006
 Alpha  occ. eigenvalues --   -0.70935  -0.70744  -0.69659  -0.68138  -0.66761
 Alpha  occ. eigenvalues --   -0.66602  -0.66065  -0.63168  -0.61958  -0.61590
 Alpha  occ. eigenvalues --   -0.58707  -0.57940  -0.57480  -0.55500  -0.55341
 Alpha  occ. eigenvalues --   -0.53014  -0.51454  -0.50483  -0.49970  -0.49675
 Alpha  occ. eigenvalues --   -0.49019  -0.48737  -0.48199  -0.47787  -0.47303
 Alpha  occ. eigenvalues --   -0.46532  -0.46110  -0.45623  -0.44766  -0.43868
 Alpha  occ. eigenvalues --   -0.43583  -0.42938  -0.42386  -0.41513  -0.40972
 Alpha  occ. eigenvalues --   -0.40325  -0.39813  -0.39362  -0.38997  -0.37831
 Alpha  occ. eigenvalues --   -0.37544  -0.37477  -0.37002  -0.36896  -0.36250
 Alpha  occ. eigenvalues --   -0.35976  -0.35496  -0.34601  -0.34429  -0.33251
 Alpha  occ. eigenvalues --   -0.32913  -0.31794  -0.31134  -0.29814  -0.29477
 Alpha  occ. eigenvalues --   -0.29361  -0.28921  -0.28568  -0.28063  -0.27540
 Alpha  occ. eigenvalues --   -0.26986  -0.26594  -0.26272  -0.24955  -0.23419
 Alpha virt. eigenvalues --   -0.12047  -0.09956  -0.07674  -0.06300  -0.05263
 Alpha virt. eigenvalues --   -0.05024  -0.04501  -0.03779  -0.03156  -0.02778
 Alpha virt. eigenvalues --   -0.02041  -0.01711   0.00165   0.01878   0.04569
 Alpha virt. eigenvalues --    0.05031   0.07683   0.07962   0.08699   0.09163
 Alpha virt. eigenvalues --    0.10477   0.13020   0.13624   0.13985   0.15750
 Alpha virt. eigenvalues --    0.16727   0.17565   0.17943   0.18543   0.19497
 Alpha virt. eigenvalues --    0.19700   0.20335   0.20894   0.21558   0.22292
 Alpha virt. eigenvalues --    0.23258   0.23806   0.24369   0.24547   0.25123
 Alpha virt. eigenvalues --    0.25428   0.25912   0.26765   0.27043   0.27137
 Alpha virt. eigenvalues --    0.28069   0.28365   0.29340   0.29804   0.30334
 Alpha virt. eigenvalues --    0.30908   0.31130   0.31530   0.32063   0.32410
 Alpha virt. eigenvalues --    0.32871   0.33385   0.34622   0.35125   0.35240
 Alpha virt. eigenvalues --    0.35706   0.36064   0.36417   0.36495   0.36677
 Alpha virt. eigenvalues --    0.37280   0.37668   0.38366   0.38651   0.39032
 Alpha virt. eigenvalues --    0.39132   0.39522   0.39675   0.40186   0.40683
 Alpha virt. eigenvalues --    0.41092   0.41393   0.41705   0.41862   0.42330
 Alpha virt. eigenvalues --    0.42717   0.42971   0.43599   0.43680   0.44738
 Alpha virt. eigenvalues --    0.45668   0.46428   0.47232   0.47510   0.48261
 Alpha virt. eigenvalues --    0.49300   0.49450   0.52245   0.53083   0.53650
 Alpha virt. eigenvalues --    0.53730   0.54715   0.54892   0.55496   0.56101
 Alpha virt. eigenvalues --    0.56415   0.56799   0.57343   0.58306   0.59370
 Alpha virt. eigenvalues --    0.59586   0.60168   0.60428   0.62033   0.62790
 Alpha virt. eigenvalues --    0.63309   0.64245   0.64677   0.66346   0.66529
 Alpha virt. eigenvalues --    0.67232   0.69150   0.69501   0.70404   0.71510
 Alpha virt. eigenvalues --    0.72532   0.73231   0.73565   0.73894   0.74546
 Alpha virt. eigenvalues --    0.75368   0.76515   0.76778   0.78303   0.79178
 Alpha virt. eigenvalues --    0.79643   0.80164   0.81366   0.82421   0.84619
 Alpha virt. eigenvalues --    0.85267   0.86032   0.86362   0.86873   0.88281
 Alpha virt. eigenvalues --    0.89868   0.91310   0.91840   0.95200   0.95928
 Alpha virt. eigenvalues --    0.96804   0.97635   0.99835   1.03929   1.05385
 Alpha virt. eigenvalues --    1.05971   1.07596   1.13024   1.14830   1.15345
 Alpha virt. eigenvalues --    1.18659   1.19820   1.23470   1.23646   1.25085
 Alpha virt. eigenvalues --    1.26395   1.29109   1.29948   1.31926   1.39558
 Alpha virt. eigenvalues --    1.41177   1.44186   1.48237   1.53846   1.55141
 Alpha virt. eigenvalues --    1.56682   1.58767   1.64875   1.72709   1.76220
 Alpha virt. eigenvalues --    1.88413   1.93051   1.97608   2.03336   9.49650
 Alpha virt. eigenvalues --   10.98657  11.35247  11.48732  11.55094  12.26081
 Alpha virt. eigenvalues --   13.42741  13.84978
          Condensed to atoms (all electrons):
               1          2          3          4          5          6
     1  I    6.751209  -0.001218  -0.000475  -0.000000  -0.000000  -0.000000
     2  I   -0.001218   6.777450  -0.000000  -0.000458  -0.000000  -0.000000
     3  I   -0.000475  -0.000000   6.730620  -0.000000  -0.000007   0.000000
     4  I   -0.000000  -0.000458  -0.000000   6.779742  -0.000003  -0.000000
     5  Cl  -0.000000  -0.000000  -0.000007  -0.000003   6.821771   0.000001
     6  Cl  -0.000000  -0.000000   0.000000  -0.000000   0.000001   6.864401
     7  Cl  -0.000000  -0.000000  -0.000000  -0.000000  -0.008432  -0.000053
     8  Cl   0.000000   0.000000   0.000000   0.000000  -0.000051  -0.008896
     9  O   -0.002075  -0.000436   0.000010   0.000011  -0.000007   0.000000
    10  O   -0.000850  -0.000000  -0.021550  -0.000000  -0.000000  -0.000000
    11  O    0.000000   0.001989  -0.000000   0.004553  -0.000000  -0.000000
    12  O    0.000000   0.000000   0.000000   0.000002   0.000000  -0.036582
    13  O   -0.000001  -0.000001  -0.000000  -0.000001   0.000001  -0.000058
    14  C   -0.000864  -0.000515  -0.000628  -0.000150  -0.000159  -0.000276
    15  C   -0.013560   0.000611  -0.005165  -0.000032  -0.012291  -0.000014
    16  C    0.000655  -0.014755  -0.000047  -0.011856  -0.015017  -0.000011
    17  C   -0.000021  -0.000020  -0.000200  -0.000374  -0.163613  -0.009162
    18  C   -0.199833   0.005651   0.000199   0.000016   0.000557  -0.000000
    19  C    0.004707  -0.220387   0.000005  -0.000003   0.001113  -0.000000
    20  C    0.000329   0.000013  -0.116952  -0.000002   0.000850   0.000005
    21  C    0.000002   0.000004  -0.000026   0.000012   0.001567  -0.203929
    22  C    0.000009  -0.000704  -0.000001  -0.167248   0.001762   0.000004
    23  C    0.435251  -0.003102  -0.014294   0.000000   0.000129  -0.000000
    24  C   -0.000002  -0.000002   0.000043   0.000006   0.534748  -0.001066
    25  C   -0.003170   0.434297  -0.000000  -0.001551   0.000152   0.000000
    26  C   -0.002318   0.000000   0.430137  -0.000000   0.000065   0.000000
    27  C   -0.144345  -0.000060  -0.244877   0.000000   0.000014   0.000000
    28  C    0.000000   0.002139  -0.000000   0.395319  -0.000010   0.000001
    29  C    0.000000   0.000000  -0.000007   0.000006  -0.001007   0.487764
    30  C   -0.000050  -0.141294  -0.000000  -0.164126   0.000003   0.000000
    31  C   -0.000000  -0.000000   0.000004   0.000001  -0.205023  -0.005568
    32  C    0.000000   0.000000   0.000002  -0.000000  -0.007610  -0.177700
    33  C   -0.000001  -0.000003   0.000004  -0.000005  -0.000067   0.000377
    34  H    0.000015  -0.000000  -0.000642  -0.000000  -0.000636  -0.000002
    35  H   -0.000000   0.000014  -0.000000  -0.000845  -0.000891  -0.000000
    36  H    0.000475   0.000000   0.039898  -0.000000  -0.000000  -0.000000
    37  H    0.000000  -0.000000   0.000000  -0.000001  -0.000000   0.039411
               7          8          9         10         11         12
     1  I   -0.000000   0.000000  -0.002075  -0.000850   0.000000   0.000000
     2  I   -0.000000   0.000000  -0.000436  -0.000000   0.001989   0.000000
     3  I   -0.000000   0.000000   0.000010  -0.021550  -0.000000   0.000000
     4  I   -0.000000   0.000000   0.000011  -0.000000   0.004553   0.000002
     5  Cl  -0.008432  -0.000051  -0.000007  -0.000000  -0.000000   0.000000
     6  Cl  -0.000053  -0.008896   0.000000  -0.000000  -0.000000  -0.036582
     7  Cl   6.806996  -0.010468   0.000000  -0.000000  -0.000000  -0.000000
     8  Cl  -0.010468   6.818018  -0.000000   0.000000   0.000000   0.000002
     9  O    0.000000  -0.000000   7.880445  -0.000006  -0.000027  -0.000000
    10  O   -0.000000   0.000000  -0.000006   7.910637  -0.000000  -0.000000
    11  O   -0.000000   0.000000  -0.000027  -0.000000   7.711929   0.000000
    12  O   -0.000000   0.000002  -0.000000  -0.000000   0.000000   8.057745
    13  O   -0.000000   0.000000  -0.000032  -0.000000  -0.000000  -0.073984
    14  C   -0.000240  -0.000039  -0.037634   0.000050   0.000037   0.001367
    15  C   -0.000037  -0.000001   0.009875   0.000158   0.000001   0.000035
    16  C   -0.000030   0.000000   0.003149  -0.000002  -0.002062   0.000201
    17  C   -0.008652  -0.002834  -0.000670  -0.000000  -0.000003   0.001503
    18  C   -0.000001  -0.000000   0.296274  -0.000734  -0.000028   0.000024
    19  C   -0.000000   0.000000   0.290893  -0.000011  -0.007796  -0.000003
    20  C    0.000028  -0.000001   0.004950   0.000568   0.000000  -0.000107
    21  C   -0.001302  -0.007947   0.000042  -0.000000   0.000000  -0.002192
    22  C    0.000001  -0.000002   0.004716  -0.000000  -0.001854   0.000565
    23  C   -0.000000  -0.000000  -0.082063  -0.069546  -0.000000   0.000000
    24  C   -0.193704  -0.005544  -0.000033   0.000000   0.000000  -0.000727
    25  C    0.000000  -0.000000  -0.072474  -0.000000  -0.130707  -0.000001
    26  C    0.000002  -0.000000   0.000578  -0.079446  -0.000000  -0.000003
    27  C    0.000000  -0.000000   0.002274   0.448361  -0.000000  -0.000000
    28  C    0.000001  -0.000000  -0.000043  -0.000000  -0.123266   0.000048
    29  C   -0.005654  -0.192436   0.000000  -0.000000  -0.000000   0.002374
    30  C    0.000000  -0.000000  -0.000539  -0.000000   0.822206   0.000005
    31  C    0.548858  -0.185452  -0.000001   0.000000   0.000000  -0.000044
    32  C   -0.189806   0.535280   0.000000   0.000000  -0.000000  -0.000681
    33  C    0.000009  -0.000023  -0.000064  -0.000000  -0.000000   0.227864
    34  H   -0.000003  -0.000000  -0.000074  -0.000095  -0.000000   0.000004
    35  H   -0.000000   0.000000  -0.000057   0.000000  -0.000080  -0.000015
    36  H   -0.000000  -0.000000   0.000000   0.247639   0.000000  -0.000000
    37  H    0.000000   0.000012  -0.000000   0.000000  -0.000000   0.235148
              13         14         15         16         17         18
     1  I   -0.000001  -0.000864  -0.013560   0.000655  -0.000021  -0.199833
     2  I   -0.000001  -0.000515   0.000611  -0.014755  -0.000020   0.005651
     3  I   -0.000000  -0.000628  -0.005165  -0.000047  -0.000200   0.000199
     4  I   -0.000001  -0.000150  -0.000032  -0.011856  -0.000374   0.000016
     5  Cl   0.000001  -0.000159  -0.012291  -0.015017  -0.163613   0.000557
     6  Cl  -0.000058  -0.000276  -0.000014  -0.000011  -0.009162  -0.000000
     7  Cl  -0.000000  -0.000240  -0.000037  -0.000030  -0.008652  -0.000001
     8  Cl   0.000000  -0.000039  -0.000001   0.000000  -0.002834  -0.000000
     9  O   -0.000032  -0.037634   0.009875   0.003149  -0.000670   0.296274
    10  O   -0.000000   0.000050   0.000158  -0.000002  -0.000000  -0.000734
    11  O   -0.000000   0.000037   0.000001  -0.002062  -0.000003  -0.000028
    12  O   -0.073984   0.001367   0.000035   0.000201   0.001503   0.000024
    13  O    7.788058   0.019178  -0.011006   0.002163  -0.001279   0.004367
    14  C    0.019178   5.751251   0.206965   0.258077   0.029101  -0.105673
    15  C   -0.011006   0.206965   5.427774  -0.047010  -0.101925   0.256453
    16  C    0.002163   0.258077  -0.047010   5.396036  -0.085046   0.016195
    17  C   -0.001279   0.029101  -0.101925  -0.085046   6.731535  -0.029159
    18  C    0.004367  -0.105673   0.256453   0.016195  -0.029159   5.687389
    19  C    0.001798  -0.097808   0.012733   0.249916  -0.022118  -0.069312
    20  C   -0.002848   0.023604   0.367414  -0.021794   0.002989  -0.087340
    21  C   -0.017388  -0.097115  -0.015649   0.010296   0.178037   0.003391
    22  C   -0.001204   0.035588  -0.010699   0.311964  -0.023947   0.011455
    23  C    0.000499  -0.019660  -0.139346   0.020696  -0.003430   0.032764
    24  C   -0.001455  -0.096812  -0.010449  -0.042989   0.014581  -0.001938
    25  C    0.000174  -0.026236   0.020788  -0.060922  -0.002703  -0.036425
    26  C   -0.000657  -0.014940  -0.072558  -0.001435   0.000960  -0.137147
    27  C   -0.000020   0.001519  -0.143162   0.000400   0.000234  -0.027431
    28  C   -0.000062  -0.014414  -0.000675  -0.044663   0.000539   0.000795
    29  C   -0.003159   0.004037   0.000734   0.007900  -0.258147   0.000240
    30  C   -0.000007   0.000900   0.000832  -0.121673  -0.000307  -0.002006
    31  C   -0.000024   0.011823   0.000851  -0.001242  -0.286769  -0.000141
    32  C    0.000064  -0.001997   0.000127  -0.000061  -0.315031  -0.000003
    33  C    0.553062  -0.030968  -0.004505  -0.009560  -0.000575  -0.000187
    34  H   -0.000626  -0.006672  -0.012296   0.000921   0.009978   0.001271
    35  H    0.000092  -0.001901   0.000524  -0.024878   0.010958  -0.000033
    36  H    0.000000   0.000008   0.000357  -0.000000   0.000000  -0.000236
    37  H    0.002651   0.000094   0.000012  -0.000038   0.003988  -0.000000
              19         20         21         22         23         24
     1  I    0.004707   0.000329   0.000002   0.000009   0.435251  -0.000002
     2  I   -0.220387   0.000013   0.000004  -0.000704  -0.003102  -0.000002
     3  I    0.000005  -0.116952  -0.000026  -0.000001  -0.014294   0.000043
     4  I   -0.000003  -0.000002   0.000012  -0.167248   0.000000   0.000006
     5  Cl   0.001113   0.000850   0.001567   0.001762   0.000129   0.534748
     6  Cl  -0.000000   0.000005  -0.203929   0.000004  -0.000000  -0.001066
     7  Cl  -0.000000   0.000028  -0.001302   0.000001  -0.000000  -0.193704
     8  Cl   0.000000  -0.000001  -0.007947  -0.000002  -0.000000  -0.005544
     9  O    0.290893   0.004950   0.000042   0.004716  -0.082063  -0.000033
    10  O   -0.000011   0.000568  -0.000000  -0.000000  -0.069546   0.000000
    11  O   -0.007796   0.000000   0.000000  -0.001854  -0.000000   0.000000
    12  O   -0.000003  -0.000107  -0.002192   0.000565   0.000000  -0.000727
    13  O    0.001798  -0.002848  -0.017388  -0.001204   0.000499  -0.001455
    14  C   -0.097808   0.023604  -0.097115   0.035588  -0.019660  -0.096812
    15  C    0.012733   0.367414  -0.015649  -0.010699  -0.139346  -0.010449
    16  C    0.249916  -0.021794   0.010296   0.311964   0.020696  -0.042989
    17  C   -0.022118   0.002989   0.178037  -0.023947  -0.003430   0.014581
    18  C   -0.069312  -0.087340   0.003391   0.011455   0.032764  -0.001938
    19  C    5.608238   0.011100   0.004219  -0.104200  -0.043257  -0.001430
    20  C    0.011100   5.647444  -0.009276  -0.000691  -0.118847  -0.002718
    21  C    0.004219  -0.009276   6.704024  -0.013713   0.000143  -0.128977
    22  C   -0.104200  -0.000691  -0.013713   5.590611   0.001123  -0.002480
    23  C   -0.043257  -0.118847   0.000143   0.001123   6.856782   0.000063
    24  C   -0.001430  -0.002718  -0.128977  -0.002480   0.000063   7.048572
    25  C   -0.046034   0.001004   0.000154  -0.057831  -0.012222   0.000135
    26  C    0.001113   0.350221  -0.001243  -0.000097  -0.257098  -0.001531
    27  C   -0.000432  -0.071936  -0.000083   0.000010   0.145876  -0.000005
    28  C   -0.061973  -0.000046  -0.002356   0.276555  -0.000002  -0.000767
    29  C    0.000224  -0.001875  -0.195849  -0.003405   0.000008  -0.318610
    30  C    0.007728   0.000015  -0.000143  -0.035711  -0.000536  -0.000004
    31  C    0.000004  -0.001474  -0.297326  -0.002284   0.000001  -0.188676
    32  C   -0.000004   0.000006  -0.272979   0.000190   0.000000  -0.295836
    33  C   -0.001207   0.000597   0.022205   0.000425   0.000108   0.021098
    34  H   -0.000087   0.298723  -0.001457   0.000081   0.000744  -0.000382
    35  H    0.000545   0.000086  -0.002905   0.316022  -0.000000  -0.001119
    36  H    0.000000   0.001719   0.000000   0.000000   0.009894   0.000000
    37  H   -0.000002   0.000003   0.034974   0.000020  -0.000000   0.000121
              25         26         27         28         29         30
     1  I   -0.003170  -0.002318  -0.144345   0.000000   0.000000  -0.000050
     2  I    0.434297   0.000000  -0.000060   0.002139   0.000000  -0.141294
     3  I   -0.000000   0.430137  -0.244877  -0.000000  -0.000007  -0.000000
     4  I   -0.001551  -0.000000   0.000000   0.395319   0.000006  -0.164126
     5  Cl   0.000152   0.000065   0.000014  -0.000010  -0.001007   0.000003
     6  Cl   0.000000   0.000000   0.000000   0.000001   0.487764   0.000000
     7  Cl   0.000000   0.000002   0.000000   0.000001  -0.005654   0.000000
     8  Cl  -0.000000  -0.000000  -0.000000  -0.000000  -0.192436  -0.000000
     9  O   -0.072474   0.000578   0.002274  -0.000043   0.000000  -0.000539
    10  O   -0.000000  -0.079446   0.448361  -0.000000  -0.000000  -0.000000
    11  O   -0.130707  -0.000000  -0.000000  -0.123266  -0.000000   0.822206
    12  O   -0.000001  -0.000003  -0.000000   0.000048   0.002374   0.000005
    13  O    0.000174  -0.000657  -0.000020  -0.000062  -0.003159  -0.000007
    14  C   -0.026236  -0.014940   0.001519  -0.014414   0.004037   0.000900
    15  C    0.020788  -0.072558  -0.143162  -0.000675   0.000734   0.000832
    16  C   -0.060922  -0.001435   0.000400  -0.044663   0.007900  -0.121673
    17  C   -0.002703   0.000960   0.000234   0.000539  -0.258147  -0.000307
    18  C   -0.036425  -0.137147  -0.027431   0.000795   0.000240  -0.002006
    19  C   -0.046034   0.001113  -0.000432  -0.061973   0.000224   0.007728
    20  C    0.001004   0.350221  -0.071936  -0.000046  -0.001875   0.000015
    21  C    0.000154  -0.001243  -0.000083  -0.002356  -0.195849  -0.000143
    22  C   -0.057831  -0.000097   0.000010   0.276555  -0.003405  -0.035711
    23  C   -0.012222  -0.257098   0.145876  -0.000002   0.000008  -0.000536
    24  C    0.000135  -0.001531  -0.000005  -0.000767  -0.318610  -0.000004
    25  C    7.301153   0.000022  -0.000516  -0.355293   0.000004  -0.143611
    26  C    0.000022   6.722823  -0.137369  -0.000002  -0.000177  -0.000001
    27  C   -0.000516  -0.137369   5.467304  -0.000001  -0.000007  -0.000008
    28  C   -0.355293  -0.000002  -0.000001   6.811995  -0.000446  -0.208828
    29  C    0.000004  -0.000177  -0.000007  -0.000446   7.194606  -0.000012
    30  C   -0.143611  -0.000001  -0.000008  -0.208828  -0.000012   5.540163
    31  C    0.000006  -0.000149   0.000003  -0.000188  -0.298233  -0.000002
    32  C    0.000000   0.000001   0.000000  -0.000002  -0.069359  -0.000000
    33  C   -0.000023  -0.000203  -0.000005   0.000292  -0.015992   0.000030
    34  H   -0.000001  -0.022774   0.001376   0.000002   0.000101   0.000000
    35  H    0.000204   0.000001   0.000000  -0.023227   0.000557   0.002289
    36  H   -0.000000   0.005303  -0.055953   0.000000  -0.000000  -0.000000
    37  H   -0.000000   0.000000  -0.000000   0.000008  -0.025987   0.000000
              31         32         33         34         35         36
     1  I   -0.000000   0.000000  -0.000001   0.000015  -0.000000   0.000475
     2  I   -0.000000   0.000000  -0.000003  -0.000000   0.000014   0.000000
     3  I    0.000004   0.000002   0.000004  -0.000642  -0.000000   0.039898
     4  I    0.000001  -0.000000  -0.000005  -0.000000  -0.000845  -0.000000
     5  Cl  -0.205023  -0.007610  -0.000067  -0.000636  -0.000891  -0.000000
     6  Cl  -0.005568  -0.177700   0.000377  -0.000002  -0.000000  -0.000000
     7  Cl   0.548858  -0.189806   0.000009  -0.000003  -0.000000  -0.000000
     8  Cl  -0.185452   0.535280  -0.000023  -0.000000   0.000000  -0.000000
     9  O   -0.000001   0.000000  -0.000064  -0.000074  -0.000057   0.000000
    10  O    0.000000   0.000000  -0.000000  -0.000095   0.000000   0.247639
    11  O    0.000000  -0.000000  -0.000000  -0.000000  -0.000080   0.000000
    12  O   -0.000044  -0.000681   0.227864   0.000004  -0.000015  -0.000000
    13  O   -0.000024   0.000064   0.553062  -0.000626   0.000092   0.000000
    14  C    0.011823  -0.001997  -0.030968  -0.006672  -0.001901   0.000008
    15  C    0.000851   0.000127  -0.004505  -0.012296   0.000524   0.000357
    16  C   -0.001242  -0.000061  -0.009560   0.000921  -0.024878  -0.000000
    17  C   -0.286769  -0.315031  -0.000575   0.009978   0.010958   0.000000
    18  C   -0.000141  -0.000003  -0.000187   0.001271  -0.000033  -0.000236
    19  C    0.000004  -0.000004  -0.001207  -0.000087   0.000545   0.000000
    20  C   -0.001474   0.000006   0.000597   0.298723   0.000086   0.001719
    21  C   -0.297326  -0.272979   0.022205  -0.001457  -0.002905   0.000000
    22  C   -0.002284   0.000190   0.000425   0.000081   0.316022   0.000000
    23  C    0.000001   0.000000   0.000108   0.000744  -0.000000   0.009894
    24  C   -0.188676  -0.295836   0.021098  -0.000382  -0.001119   0.000000
    25  C    0.000006   0.000000  -0.000023  -0.000001   0.000204  -0.000000
    26  C   -0.000149   0.000001  -0.000203  -0.022774   0.000001   0.005303
    27  C    0.000003   0.000000  -0.000005   0.001376   0.000000  -0.055953
    28  C   -0.000188  -0.000002   0.000292   0.000002  -0.023227   0.000000
    29  C   -0.298233  -0.069359  -0.015992   0.000101   0.000557  -0.000000
    30  C   -0.000002  -0.000000   0.000030   0.000000   0.002289  -0.000000
    31  C    7.069810  -0.103278   0.003384   0.000512   0.000753   0.000000
    32  C   -0.103278   7.015373   0.000356  -0.000189  -0.000260  -0.000000
    33  C    0.003384   0.000356   5.105926  -0.000137  -0.000193  -0.000000
    34  H    0.000512  -0.000189  -0.000137   0.457604   0.000001  -0.000019
    35  H    0.000753  -0.000260  -0.000193   0.000001   0.450567   0.000000
    36  H    0.000000  -0.000000  -0.000000  -0.000019   0.000000   0.381106
    37  H   -0.000113  -0.001171  -0.042674   0.000000   0.000006   0.000000
              37
     1  I    0.000000
     2  I   -0.000000
     3  I    0.000000
     4  I   -0.000001
     5  Cl  -0.000000
     6  Cl   0.039411
     7  Cl   0.000000
     8  Cl   0.000012
     9  O   -0.000000
    10  O    0.000000
    11  O   -0.000000
    12  O    0.235148
    13  O    0.002651
    14  C    0.000094
    15  C    0.000012
    16  C   -0.000038
    17  C    0.003988
    18  C   -0.000000
    19  C   -0.000002
    20  C    0.000003
    21  C    0.034974
    22  C    0.000020
    23  C   -0.000000
    24  C    0.000121
    25  C   -0.000000
    26  C    0.000000
    27  C   -0.000000
    28  C    0.000008
    29  C   -0.025987
    30  C    0.000000
    31  C   -0.000113
    32  C   -0.001171
    33  C   -0.042674
    34  H    0.000000
    35  H    0.000006
    36  H    0.000000
    37  H    0.351684
 Mulliken charges:
               1
     1  I    0.176127
     2  I    0.160790
     3  I    0.203950
     4  I    0.166987
     5  Cl   0.052093
     6  Cl   0.051353
     7  Cl   0.062487
     8  Cl   0.060380
     9  O   -0.296983
    10  O   -0.435173
    11  O   -0.274893
    12  O   -0.412547
    13  O   -0.258296
    14  C    0.211100
    15  C    0.294135
    16  C    0.226522
    17  C    0.331583
    18  C    0.380586
    19  C    0.481727
    20  C   -0.275763
    21  C    0.312787
    22  C   -0.125031
    23  C   -0.740680
    24  C   -0.322111
    25  C   -0.808369
    26  C   -0.782078
    27  C    0.758838
    28  C   -0.651428
    29  C   -0.308192
    30  C    0.444688
    31  C   -0.060023
    32  C   -0.115431
    33  C    0.170656
    34  H    0.274759
    35  H    0.273788
    36  H    0.369808
    37  H    0.401853
 Sum of Mulliken charges =  -0.00000
 Mulliken charges with hydrogens summed into heavy atoms:
               1
     1  I    0.176127
     2  I    0.160790
     3  I    0.203950
     4  I    0.166987
     5  Cl   0.052093
     6  Cl   0.051353
     7  Cl   0.062487
     8  Cl   0.060380
     9  O   -0.296983
    10  O   -0.065364
    11  O   -0.274893
    12  O   -0.010693
    13  O   -0.258296
    14  C    0.211100
    15  C    0.294135
    16  C    0.226522
    17  C    0.331583
    18  C    0.380586
    19  C    0.481727
    20  C   -0.001004
    21  C    0.312787
    22  C    0.148757
    23  C   -0.740680
    24  C   -0.322111
    25  C   -0.808369
    26  C   -0.782078
    27  C    0.758838
    28  C   -0.651428
    29  C   -0.308192
    30  C    0.444688
    31  C   -0.060023
    32  C   -0.115431
    33  C    0.170656
 Electronic spatial extent (au):  <R**2>=          46909.2505
 Charge=             -0.0000 electrons
 Dipole moment (field-independent basis, Debye):
    X=             12.0892    Y=             -8.1743    Z=             -1.7305  Tot=             14.6957
 Quadrupole moment (field-independent basis, Debye-Ang):
   XX=           -125.0188   YY=           -319.8337   ZZ=           -280.2579
   XY=              1.3729   XZ=             -1.3762   YZ=             -2.8315
 Traceless Quadrupole moment (field-independent basis, Debye-Ang):
   XX=            116.6847   YY=            -78.1302   ZZ=            -38.5544
   XY=              1.3729   XZ=             -1.3762   YZ=             -2.8315
 Octapole moment (field-independent basis, Debye-Ang**2):
  XXX=          -3460.1787  YYY=          -2479.3998  ZZZ=             -0.5445  XYY=          -1574.0932
  XXY=           -350.2265  XXZ=             98.4965  XZZ=          -1646.8973  YZZ=           -658.8967
  YYZ=              9.4787  XYZ=             14.7354
 Hexadecapole moment (field-independent basis, Debye-Ang**3):
 XXXX=         -61250.9061 YYYY=         -26117.0331 ZZZZ=          -3086.0230 XXXY=          -7978.6123
 XXXZ=           1662.5278 YYYX=         -12526.7758 YYYZ=             37.2769 ZZZX=             17.0050
 ZZZY=             -3.4722 XXYY=         -14300.9889 XXZZ=         -12775.4618 YYZZ=          -4314.2236
 XXYZ=            441.0163 YYXZ=            156.9530 ZZXY=          -3875.7172
 N-N= 2.963461933549D+03 E-N=-8.787956543466D+03  KE= 1.170335795792D+03
   1 Symmetry operations used in ECPInt.
 ECPInt:  NShTT=   13695 NPrTT=   97308 LenC2=   12734 LenP2D=   52965.
 LDataN:  DoStor=T MaxTD1= 5 Len=  102
 D1PCM: PCM CHGder 1st derivatives, ID1Alg=3 FixD1E=F DoIter=F DoCFld=F I1PDM=0.
 Calling FoFJK, ICntrl=      2127 FMM=F ISym2X=0 I1Cent= 0 IOpClX= 0 NMat=1 NMatS=1 NMatT=0.
 Defaulting to unpruned grid for atomic number  53.
 Defaulting to unpruned grid for atomic number  53.
 Defaulting to unpruned grid for atomic number  53.
 Defaulting to unpruned grid for atomic number  53.
 -------------------------------------------------------------------
 Center     Atomic                   Forces (Hartrees/Bohr)
 Number     Number              X              Y              Z
 -------------------------------------------------------------------
      1       53          -0.001633819   -0.000815541   -0.000217295
      2       53          -0.010229659    0.000346645    0.000260154
      3       53           0.006958644   -0.013484027    0.000816119
      4       53           0.006895478    0.018738275   -0.001147549
      5       17          -0.013512092   -0.001809063   -0.019866303
      6       17           0.027530722   -0.002531833    0.020618428
      7       17           0.011219556   -0.002411292   -0.020178948
      8       17           0.023192047   -0.001365564   -0.000890916
      9        8          -0.007158913    0.010016022    0.001335454
     10        8          -0.010168672    0.006316419   -0.000132481
     11        8          -0.026695200    0.043486832    0.003821091
     12        8          -0.008641808    0.008979412    0.024411437
     13        8          -0.025248644   -0.011400011    0.007560987
     14        6          -0.009297027   -0.030339477    0.003592554
     15        6           0.035955542    0.016301516   -0.000228004
     16        6          -0.005275153    0.023744595   -0.004438009
     17        6           0.001697868   -0.008404284   -0.003378954
     18        6          -0.007654160   -0.016631284   -0.000889445
     19        6           0.021511551   -0.011624052    0.000217450
     20        6           0.001495582   -0.007967044    0.000223633
     21        6           0.003376935   -0.005470956   -0.014583563
     22        6           0.006674419   -0.021981894    0.001282307
     23        6          -0.009325777    0.009501099   -0.000606586
     24        6           0.005677221    0.002583417    0.029313975
     25        6           0.004251851    0.028128385   -0.000325694
     26        6           0.024473264    0.016023871    0.000668498
     27        6          -0.010337233    0.001440060   -0.001077576
     28        6          -0.023927634   -0.004939228    0.001241168
     29        6          -0.017157925   -0.001651354   -0.032572700
     30        6           0.018609581   -0.041075631   -0.003748696
     31        6          -0.010105308    0.002791379    0.015440004
     32        6          -0.016612784    0.000961610    0.008230746
     33        6           0.013719239    0.006206242   -0.016265548
     34        1          -0.001338790    0.003078010   -0.000837443
     35        1           0.000498944   -0.005771459    0.002172887
     36        1          -0.000546913   -0.015296347    0.000352387
     37        1           0.001129062    0.006326552   -0.000173567
 -------------------------------------------------------------------
 Cartesian Forces:  Max     0.043486832 RMS     0.013918346

 GradGradGradGradGradGradGradGradGradGradGradGradGradGradGradGradGradGrad
 Berny optimization.
 FormGI is forming the generalized inverse of G from B-inverse, IUseBI=4.
 Internal  Forces:  Max     0.051142963 RMS     0.009728788
 Search for a local minimum.
 Step number   1 out of a maximum of  209
 All quantities printed in internal units (Hartrees-Bohrs-Radians)
 Mixed Optimization -- RFO/linear search
 Second derivative matrix not updated -- first step.
 ITU=  0
     Eigenvalues ---    0.00683   0.00773   0.00788   0.01071   0.01334
     Eigenvalues ---    0.01375   0.01439   0.01450   0.01524   0.01570
     Eigenvalues ---    0.01638   0.01755   0.01798   0.01806   0.01923
     Eigenvalues ---    0.01924   0.01932   0.01939   0.01968   0.01987
     Eigenvalues ---    0.02011   0.02032   0.02045   0.02045   0.02055
     Eigenvalues ---    0.02075   0.02089   0.02092   0.02117   0.02126
     Eigenvalues ---    0.02137   0.02234   0.02270   0.02431   0.13499
     Eigenvalues ---    0.14271   0.14613   0.15408   0.16000   0.16000
     Eigenvalues ---    0.16000   0.16000   0.23448   0.23525   0.24940
     Eigenvalues ---    0.24953   0.24968   0.24977   0.24977   0.24983
     Eigenvalues ---    0.24990   0.24991   0.24995   0.24996   0.24996
     Eigenvalues ---    0.24997   0.24997   0.24997   0.24998   0.24999
     Eigenvalues ---    0.24999   0.24999   0.25000   0.25000   0.25000
     Eigenvalues ---    0.25000   0.25000   0.25000   0.25000   0.30891
     Eigenvalues ---    0.30935   0.31184   0.31294   0.31439   0.31730
     Eigenvalues ---    0.32145   0.32435   0.32527   0.33978   0.35337
     Eigenvalues ---    0.35512   0.35751   0.39578   0.40308   0.40969
     Eigenvalues ---    0.41297   0.42674   0.43214   0.44328   0.44509
     Eigenvalues ---    0.44844   0.45255   0.45524   0.46153   0.46417
     Eigenvalues ---    0.49470   0.51031   0.51953   0.52033   0.52547
     Eigenvalues ---    0.52589   0.56269   0.56286   0.91891   0.94847
 RFO step:  Lambda=-5.03276558D-02 EMin= 6.83272565D-03
 Linear search not attempted -- first point.
 Maximum step size (   0.300) exceeded in Quadratic search.
    -- Step size scaled by   0.820
 Iteration  1 RMS(Cart)=  0.09241692 RMS(Int)=  0.00393643
 Iteration  2 RMS(Cart)=  0.00732178 RMS(Int)=  0.00015536
 Iteration  3 RMS(Cart)=  0.00005588 RMS(Int)=  0.00015273
 Iteration  4 RMS(Cart)=  0.00000001 RMS(Int)=  0.00015273
 Variable       Old X    -DE/DX   Delta X   Delta X   Delta X     New X
                                 (Linear)    (Quad)   (Total)
    R1        3.99685   0.00160   0.00000   0.00706   0.00706   4.00391
    R2        3.93577   0.01024   0.00000   0.04273   0.04273   3.97851
    R3        3.95386   0.01518   0.00000   0.06449   0.06449   4.01835
    R4        3.89587   0.01970   0.00000   0.07904   0.07904   3.97492
    R5        3.29921   0.02406   0.00000   0.05493   0.05493   3.35414
    R6        3.29363   0.03222   0.00000   0.07295   0.07295   3.36658
    R7        3.29155   0.02318   0.00000   0.05232   0.05232   3.34387
    R8        3.29836   0.02325   0.00000   0.05300   0.05300   3.35136
    R9        2.58606   0.01637   0.00000   0.02407   0.02401   2.61008
   R10        2.62126   0.00440   0.00000   0.00695   0.00695   2.62821
   R11        2.58839   0.01338   0.00000   0.01957   0.01957   2.60796
   R12        1.84040   0.01169   0.00000   0.01663   0.01663   1.85703
   R13        2.32074   0.05114   0.00000   0.04327   0.04327   2.36401
   R14        2.54007   0.02300   0.00000   0.03076   0.03076   2.57083
   R15        1.84645   0.00275   0.00000   0.00396   0.00396   1.85040
   R16        2.30776   0.02848   0.00000   0.02338   0.02338   2.33115
   R17        2.82153  -0.02256   0.00000  -0.04865  -0.04866   2.77288
   R18        2.57394   0.02479   0.00000   0.03509   0.03515   2.60909
   R19        2.84640  -0.00367   0.00000  -0.00818  -0.00818   2.83822
   R20        2.63807   0.01608   0.00000   0.02510   0.02504   2.66311
   R21        2.65648   0.00489   0.00000   0.00763   0.00763   2.66411
   R22        2.78224  -0.00656   0.00000  -0.01371  -0.01365   2.76859
   R23        2.76811  -0.00858   0.00000  -0.01699  -0.01700   2.75111
   R24        2.69590  -0.00537   0.00000  -0.00970  -0.00968   2.68622
   R25        2.68217  -0.00943   0.00000  -0.01706  -0.01706   2.66511
   R26        2.66156  -0.00235   0.00000  -0.00423  -0.00424   2.65732
   R27        2.54837   0.02587   0.00000   0.03494   0.03496   2.58333
   R28        2.64223  -0.00042   0.00000  -0.00037  -0.00036   2.64187
   R29        2.05132  -0.00161   0.00000  -0.00327  -0.00327   2.04805
   R30        2.66861   0.01640   0.00000   0.02819   0.02821   2.69682
   R31        2.83355   0.02333   0.00000   0.05107   0.05107   2.88462
   R32        2.53480   0.02833   0.00000   0.03771   0.03769   2.57249
   R33        2.04851   0.00014   0.00000   0.00028   0.00028   2.04879
   R34        2.64434   0.00870   0.00000   0.01449   0.01448   2.65882
   R35        2.65341   0.00221   0.00000   0.00307   0.00306   2.65647
   R36        2.83496  -0.01030   0.00000  -0.02263  -0.02263   2.81234
   R37        2.63625   0.03044   0.00000   0.04920   0.04921   2.68546
   R38        2.82799  -0.00036   0.00000  -0.00045  -0.00046   2.82753
   R39        2.66973  -0.00135   0.00000  -0.00150  -0.00150   2.66823
   R40        2.65049   0.00299   0.00000   0.00509   0.00507   2.65556
    A1        2.11465   0.00294   0.00000   0.00856   0.00849   2.12314
    A2        1.89353   0.01820   0.00000   0.07096   0.07096   1.96450
    A3        2.05235   0.00597   0.00000   0.02328   0.02328   2.07563
    A4        2.05158   0.00922   0.00000   0.02413   0.02418   2.07576
    A5        2.12163  -0.01254   0.00000  -0.03375  -0.03378   2.08785
    A6        2.10960   0.00331   0.00000   0.00952   0.00948   2.11909
    A7        2.09339  -0.00537   0.00000  -0.01395  -0.01400   2.07939
    A8        2.12382   0.00291   0.00000   0.00912   0.00916   2.13298
    A9        2.06589   0.00246   0.00000   0.00485   0.00486   2.07074
   A10        2.10802  -0.00125   0.00000  -0.00433  -0.00422   2.10381
   A11        2.12255   0.00635   0.00000   0.01801   0.01796   2.14051
   A12        2.05256  -0.00510   0.00000  -0.01361  -0.01369   2.03886
   A13        2.13144  -0.00545   0.00000  -0.01396  -0.01402   2.11742
   A14        2.06575  -0.00088   0.00000  -0.00151  -0.00156   2.06418
   A15        2.08573   0.00636   0.00000   0.01584   0.01582   2.10155
   A16        2.11317  -0.00138   0.00000  -0.00257  -0.00266   2.11051
   A17        2.05908  -0.00109   0.00000  -0.00225  -0.00218   2.05691
   A18        2.11092   0.00247   0.00000   0.00482   0.00484   2.11577
   A19        2.08201  -0.00413   0.00000  -0.01137  -0.01133   2.07068
   A20        2.08103  -0.00132   0.00000  -0.00310  -0.00314   2.07789
   A21        2.12015   0.00545   0.00000   0.01447   0.01447   2.13462
   A22        2.11054  -0.00006   0.00000  -0.00043  -0.00043   2.11012
   A23        2.10404  -0.00303   0.00000  -0.01173  -0.01174   2.09230
   A24        2.06860   0.00310   0.00000   0.01216   0.01216   2.08076
   A25        2.08036  -0.00571   0.00000  -0.01502  -0.01497   2.06539
   A26        2.07546  -0.02663   0.00000  -0.07320  -0.07323   2.00223
   A27        2.12589   0.03233   0.00000   0.08801   0.08799   2.21388
   A28        2.13649  -0.00029   0.00000  -0.00021  -0.00026   2.13624
   A29        2.08383  -0.00582   0.00000  -0.02315  -0.02313   2.06070
   A30        2.06285   0.00611   0.00000   0.02335   0.02338   2.08623
   A31        2.09687   0.00292   0.00000   0.00785   0.00786   2.10473
   A32        2.09190  -0.00065   0.00000  -0.00190  -0.00188   2.09002
   A33        2.09442  -0.00228   0.00000  -0.00594  -0.00598   2.08844
   A34        2.08609  -0.00206   0.00000  -0.00452  -0.00452   2.08158
   A35        2.09050   0.00050   0.00000   0.00249   0.00249   2.09298
   A36        2.10659   0.00156   0.00000   0.00204   0.00204   2.10862
   A37        2.13675  -0.00086   0.00000  -0.00218  -0.00219   2.13456
   A38        2.03905  -0.00123   0.00000  -0.00319  -0.00320   2.03585
   A39        2.10738   0.00209   0.00000   0.00538   0.00539   2.11277
   A40        2.06249   0.00236   0.00000   0.00555   0.00555   2.06803
   A41        2.11973   0.00058   0.00000   0.00070   0.00070   2.12042
   A42        2.10088  -0.00293   0.00000  -0.00620  -0.00620   2.09468
   A43        2.09020  -0.01447   0.00000  -0.04054  -0.04054   2.04967
   A44        2.10954   0.01412   0.00000   0.03753   0.03753   2.14707
   A45        2.08342   0.00036   0.00000   0.00303   0.00302   2.08644
   A46        2.10501   0.00407   0.00000   0.01060   0.01062   2.11563
   A47        2.07696  -0.00914   0.00000  -0.02548  -0.02546   2.05150
   A48        2.10121   0.00508   0.00000   0.01488   0.01484   2.11605
   A49        2.10843   0.01950   0.00000   0.05197   0.05180   2.16023
   A50        2.07308  -0.01905   0.00000  -0.05328  -0.05338   2.01969
   A51        2.10156  -0.00048   0.00000   0.00090   0.00079   2.10235
[...]
    23  C   -0.000000  -0.000000  -0.075151  -0.080795  -0.000000   0.000001
    24  C   -0.174604  -0.004498  -0.000063   0.000000   0.000000  -0.000726
    25  C   -0.000000   0.000000  -0.072634  -0.000000  -0.132737   0.000010
    26  C    0.000001  -0.000000   0.000375  -0.080184  -0.000000  -0.000007
    27  C    0.000000  -0.000000   0.002884   0.458667  -0.000000  -0.000000
    28  C    0.000001  -0.000000   0.000001  -0.000000  -0.126672  -0.000065
    29  C   -0.004615  -0.170985   0.000001  -0.000000  -0.000000  -0.005539
    30  C    0.000000  -0.000000  -0.000610   0.000000   0.816587  -0.000004
    31  C    0.513384  -0.170070  -0.000001   0.000000   0.000000  -0.000067
    32  C   -0.167846   0.507082   0.000000  -0.000000  -0.000000  -0.000855
    33  C   -0.000002  -0.000046  -0.000088  -0.000000  -0.000000   0.210279
    34  H   -0.000000  -0.000000  -0.000071  -0.000075  -0.000000   0.000002
    35  H   -0.000001   0.000000  -0.000068   0.000000  -0.000065  -0.000365
    36  H   -0.000000  -0.000000   0.000000   0.249590   0.000000   0.000000
    37  H   -0.000000  -0.000001  -0.000000   0.000000  -0.000000   0.248668
              13         14         15         16         17         18
     1  I   -0.000000  -0.000752  -0.012880   0.000615  -0.000025  -0.199982
     2  I   -0.000000  -0.000489   0.000445  -0.013084  -0.000021   0.005130
     3  I    0.000018  -0.000415  -0.004726  -0.000036  -0.000187   0.000141
     4  I   -0.000000  -0.000110  -0.000027  -0.008956  -0.000233   0.000012
     5  Cl  -0.000000  -0.002708  -0.011324  -0.013111  -0.157989   0.000589
     6  Cl  -0.000107  -0.000295  -0.000006  -0.000008  -0.002038  -0.000000
     7  Cl  -0.000000  -0.000221  -0.000022  -0.000027  -0.007573  -0.000001
     8  Cl   0.000000  -0.000029  -0.000000   0.000000  -0.002069   0.000000
     9  O   -0.000003  -0.037380   0.001306   0.009056  -0.000247   0.297689
    10  O   -0.000000   0.000048  -0.000244  -0.000002   0.000000  -0.001163
    11  O   -0.000000   0.000032   0.000001  -0.001676  -0.000002  -0.000024
    12  O   -0.076632   0.002876   0.000455   0.000471   0.000845   0.000087
    13  O    7.778585   0.009673  -0.001731   0.004367   0.011808   0.001063
    14  C    0.009673   5.749569   0.217017   0.259258   0.037636  -0.080819
    15  C   -0.001731   0.217017   5.434014  -0.031279  -0.100846   0.280519
    16  C    0.004367   0.259258  -0.031279   5.418130  -0.095037   0.010418
    17  C    0.011808   0.037636  -0.100846  -0.095037   6.477694  -0.036713
    18  C    0.001063  -0.080819   0.280519   0.010418  -0.036713   5.629210
    19  C    0.000249  -0.080491   0.004688   0.228355  -0.028780  -0.070949
    20  C   -0.000389  -0.000922   0.344520  -0.017340  -0.000183  -0.091935
    21  C   -0.024607  -0.102712  -0.016482  -0.021371   0.107893   0.000461
    22  C   -0.000384   0.017293  -0.009347   0.293191  -0.020982   0.011299
    23  C    0.000205  -0.020557  -0.134003   0.020754  -0.004169   0.037140
    24  C    0.000116  -0.113316  -0.023027  -0.018484  -0.030165   0.000194
    25  C    0.000013  -0.023735   0.018698  -0.081795  -0.002874  -0.028825
    26  C   -0.000754  -0.014757  -0.060066  -0.000839   0.001256  -0.118730
    27  C   -0.000058   0.000535  -0.145395   0.000312   0.000318  -0.030947
    28  C   -0.000009  -0.007684  -0.000315  -0.043246   0.001109   0.000969
    29  C   -0.000493   0.007450   0.002893   0.003839  -0.023057   0.000126
    30  C   -0.000000   0.000593   0.000725  -0.129778  -0.000323  -0.001775
    31  C    0.000066   0.006576   0.000729   0.002082  -0.163162   0.000059
    32  C    0.000365  -0.002254  -0.000090   0.000101  -0.288716   0.000001
    33  C    0.551147  -0.031135  -0.006562  -0.005922  -0.016908  -0.000434
    34  H   -0.000760  -0.006424  -0.020055   0.000743   0.010946   0.000612
    35  H    0.000035  -0.004964   0.000663  -0.024418   0.010274  -0.000070
    36  H    0.000000   0.000005   0.000172  -0.000000   0.000000   0.000070
    37  H    0.002451   0.000541   0.000050  -0.000226   0.004642  -0.000000
              19         20         21         22         23         24
     1  I    0.004535  -0.000123   0.000001   0.000009   0.438657  -0.000001
     2  I   -0.203488   0.000008   0.000003  -0.000440  -0.003027  -0.000001
     3  I    0.000006  -0.113085  -0.000004  -0.000001  -0.009688   0.000020
     4  I   -0.000060  -0.000001   0.000014  -0.135328   0.000000   0.000010
     5  Cl   0.000777   0.001038   0.002713   0.001580   0.000116   0.511228
     6  Cl  -0.000000   0.000002  -0.175084  -0.000003  -0.000000  -0.001351
     7  Cl  -0.000000   0.000010  -0.001073   0.000007  -0.000000  -0.174604
     8  Cl   0.000000  -0.000000  -0.005621  -0.000001  -0.000000  -0.004498
     9  O    0.280960   0.004771   0.000068   0.005430  -0.075151  -0.000063
    10  O   -0.000008  -0.001519  -0.000000  -0.000000  -0.080795   0.000000
    11  O   -0.008177   0.000000   0.000000  -0.002676  -0.000000   0.000000
    12  O    0.000075  -0.000171   0.007298   0.001440   0.000001  -0.000726
    13  O    0.000249  -0.000389  -0.024607  -0.000384   0.000205   0.000116
    14  C   -0.080491  -0.000922  -0.102712   0.017293  -0.020557  -0.113316
    15  C    0.004688   0.344520  -0.016482  -0.009347  -0.134003  -0.023027
    16  C    0.228355  -0.017340  -0.021371   0.293191   0.020754  -0.018484
    17  C   -0.028780  -0.000183   0.107893  -0.020982  -0.004169  -0.030165
    18  C   -0.070949  -0.091935   0.000461   0.011299   0.037140   0.000194
    19  C    5.588213   0.010335   0.001885  -0.107606  -0.036059  -0.000429
    20  C    0.010335   5.603779   0.000747  -0.000516  -0.108268  -0.006801
    21  C    0.001885   0.000747   6.362160  -0.002509  -0.000012  -0.003991
    22  C   -0.107606  -0.000516  -0.002509   5.593862   0.001045  -0.005624
    23  C   -0.036059  -0.108268  -0.000012   0.001045   6.862072   0.000249
    24  C   -0.000429  -0.006801  -0.003991  -0.005624   0.000249   6.737550
    25  C    0.061681   0.000862   0.000075  -0.074118  -0.011607   0.000137
    26  C    0.000717   0.381722   0.000212  -0.000056  -0.269932  -0.001872
    27  C    0.000038  -0.070131  -0.000006   0.000003   0.113773  -0.000086
    28  C   -0.076417  -0.000042  -0.000209   0.374119   0.000014  -0.001397
    29  C    0.000196  -0.000809  -0.069341  -0.001040   0.000003  -0.282662
    30  C    0.000411   0.000016  -0.000081  -0.040640  -0.000530  -0.000002
    31  C    0.000001  -0.003108  -0.249144  -0.002809   0.000008  -0.151118
    32  C    0.000001   0.000017  -0.131514   0.000122   0.000000  -0.168688
    33  C   -0.001254  -0.000786   0.073713  -0.000090   0.000082   0.017294
    34  H   -0.000137   0.305685  -0.002702   0.000095   0.000489   0.000035
    35  H    0.000608   0.000079  -0.003457   0.311377  -0.000001   0.000054
    36  H    0.000000   0.000357   0.000000   0.000000   0.012339   0.000000
    37  H   -0.000013   0.000002   0.022799  -0.000159   0.000000   0.000278
              25         26         27         28         29         30
     1  I   -0.003072  -0.001473  -0.143831   0.000000   0.000000  -0.000054
     2  I    0.418109   0.000000  -0.000055   0.002344   0.000000  -0.133149
     3  I   -0.000000   0.407446  -0.205669  -0.000000  -0.000005  -0.000000
     4  I   -0.002448  -0.000000   0.000000   0.380264  -0.000001  -0.158063
     5  Cl   0.000123   0.000047   0.000008   0.000102  -0.000988   0.000006
     6  Cl   0.000000   0.000001   0.000000   0.000001   0.495729   0.000000
     7  Cl  -0.000000   0.000001   0.000000   0.000001  -0.004615   0.000000
     8  Cl   0.000000  -0.000000  -0.000000  -0.000000  -0.170985  -0.000000
     9  O   -0.072634   0.000375   0.002884   0.000001   0.000001  -0.000610
    10  O   -0.000000  -0.080184   0.458667  -0.000000  -0.000000   0.000000
    11  O   -0.132737  -0.000000  -0.000000  -0.126672  -0.000000   0.816587
    12  O    0.000010  -0.000007  -0.000000  -0.000065  -0.005539  -0.000004
    13  O    0.000013  -0.000754  -0.000058  -0.000009  -0.000493  -0.000000
    14  C   -0.023735  -0.014757   0.000535  -0.007684   0.007450   0.000593
    15  C    0.018698  -0.060066  -0.145395  -0.000315   0.002893   0.000725
    16  C   -0.081795  -0.000839   0.000312  -0.043246   0.003839  -0.129778
    17  C   -0.002874   0.001256   0.000318   0.001109  -0.023057  -0.000323
    18  C   -0.028825  -0.118730  -0.030947   0.000969   0.000126  -0.001775
    19  C    0.061681   0.000717   0.000038  -0.076417   0.000196   0.000411
    20  C    0.000862   0.381722  -0.070131  -0.000042  -0.000809   0.000016
    21  C    0.000075   0.000212  -0.000006  -0.000209  -0.069341  -0.000081
    22  C   -0.074118  -0.000056   0.000003   0.374119  -0.001040  -0.040640
    23  C   -0.011607  -0.269932   0.113773   0.000014   0.000003  -0.000530
    24  C    0.000137  -0.001872  -0.000086  -0.001397  -0.282662  -0.000002
    25  C    7.186213   0.000008  -0.000483  -0.355341   0.000004  -0.143537
    26  C    0.000008   6.581290  -0.100025  -0.000001  -0.000120  -0.000001
    27  C   -0.000483  -0.100025   5.460331  -0.000001  -0.000003  -0.000007
    28  C   -0.355341  -0.000001  -0.000001   6.687954  -0.000209  -0.212648
    29  C    0.000004  -0.000120  -0.000003  -0.000209   6.655738  -0.000006
    30  C   -0.143537  -0.000001  -0.000007  -0.212648  -0.000006   5.554445
    31  C    0.000005  -0.000291  -0.000006  -0.000207  -0.177507  -0.000002
    32  C    0.000000  -0.000009  -0.000000  -0.000013  -0.144528  -0.000000
    33  C   -0.000043  -0.000362  -0.000002   0.000057  -0.029254   0.000028
    34  H   -0.000002  -0.018872   0.002119   0.000002  -0.000062   0.000000
    35  H    0.000251   0.000001   0.000000  -0.020704  -0.000048   0.001654
    36  H    0.000000  -0.005184  -0.037615   0.000000   0.000000  -0.000000
    37  H    0.000001   0.000000  -0.000000   0.000067  -0.012409   0.000002
              31         32         33         34         35         36
     1  I   -0.000000   0.000000  -0.000001   0.000012  -0.000000   0.000609
     2  I   -0.000000   0.000000  -0.000002  -0.000000   0.000014   0.000000
     3  I   -0.000003   0.000001   0.000003  -0.000757  -0.000000   0.028819
     4  I    0.000002  -0.000000  -0.000008  -0.000000  -0.002642  -0.000000
     5  Cl  -0.178708  -0.004411  -0.000079  -0.000626  -0.000538  -0.000000
     6  Cl  -0.004039  -0.173710   0.002838  -0.000000   0.000002  -0.000000
     7  Cl   0.513384  -0.167846  -0.000002  -0.000000  -0.000001  -0.000000
     8  Cl  -0.170070   0.507082  -0.000046  -0.000000   0.000000  -0.000000
     9  O   -0.000001   0.000000  -0.000088  -0.000071  -0.000068   0.000000
    10  O    0.000000  -0.000000  -0.000000  -0.000075   0.000000   0.249590
    11  O    0.000000  -0.000000  -0.000000  -0.000000  -0.000065   0.000000
    12  O   -0.000067  -0.000855   0.210279   0.000002  -0.000365   0.000000
    13  O    0.000066   0.000365   0.551147  -0.000760   0.000035   0.000000
    14  C    0.006576  -0.002254  -0.031135  -0.006424  -0.004964   0.000005
    15  C    0.000729  -0.000090  -0.006562  -0.020055   0.000663   0.000172
    16  C    0.002082   0.000101  -0.005922   0.000743  -0.024418  -0.000000
    17  C   -0.163162  -0.288716  -0.016908   0.010946   0.010274   0.000000
    18  C    0.000059   0.000001  -0.000434   0.000612  -0.000070   0.000070
    19  C    0.000001   0.000001  -0.001254  -0.000137   0.000608   0.000000
    20  C   -0.003108   0.000017  -0.000786   0.305685   0.000079   0.000357
    21  C   -0.249144  -0.131514   0.073713  -0.002702  -0.003457   0.000000
    22  C   -0.002809   0.000122  -0.000090   0.000095   0.311377   0.000000
    23  C    0.000008   0.000000   0.000082   0.000489  -0.000001   0.012339
    24  C   -0.151118  -0.168688   0.017294   0.000035   0.000054   0.000000
    25  C    0.000005   0.000000  -0.000043  -0.000002   0.000251   0.000000
    26  C   -0.000291  -0.000009  -0.000362  -0.018872   0.000001  -0.005184
    27  C   -0.000006  -0.000000  -0.000002   0.002119   0.000000  -0.037615
    28  C   -0.000207  -0.000013   0.000057   0.000002  -0.020704   0.000000
    29  C   -0.177507  -0.144528  -0.029254  -0.000062  -0.000048   0.000000
    30  C   -0.000002  -0.000000   0.000028   0.000000   0.001654  -0.000000
    31  C    6.690400  -0.065275   0.002898   0.000791   0.000929   0.000000
    32  C   -0.065275   6.745584  -0.001221  -0.000213  -0.000250  -0.000000
    33  C    0.002898  -0.001221   5.089607  -0.000345  -0.000036   0.000000
    34  H    0.000791  -0.000213  -0.000345   0.447079   0.000001  -0.000010
    35  H    0.000929  -0.000250  -0.000036   0.000001   0.451202   0.000000
    36  H    0.000000  -0.000000   0.000000  -0.000010   0.000000   0.356836
    37  H   -0.000055  -0.001070  -0.030088   0.000000   0.000268   0.000000
              37
     1  I    0.000000
     2  I    0.000000
     3  I   -0.000000
     4  I    0.000034
     5  Cl   0.000000
     6  Cl   0.000692
     7  Cl  -0.000000
     8  Cl  -0.000001
     9  O   -0.000000
    10  O    0.000000
    11  O   -0.000000
    12  O    0.248668
    13  O    0.002451
    14  C    0.000541
    15  C    0.000050
    16  C   -0.000226
    17  C    0.004642
    18  C   -0.000000
    19  C   -0.000013
    20  C    0.000002
    21  C    0.022799
    22  C   -0.000159
    23  C    0.000000
    24  C    0.000278
    25  C    0.000001
    26  C    0.000000
    27  C   -0.000000
    28  C    0.000067
    29  C   -0.012409
    30  C    0.000002
    31  C   -0.000055
    32  C   -0.001070
    33  C   -0.030088
    34  H    0.000000
    35  H    0.000268
    36  H    0.000000
    37  H    0.326014
 Mulliken charges:
               1
     1  I    0.193929
     2  I    0.154037
     3  I    0.193586
     4  I    0.149070
     5  Cl   0.023562
     6  Cl   0.027846
     7  Cl   0.038254
     8  Cl   0.041629
     9  O   -0.306543
    10  O   -0.441430
    11  O   -0.315484
    12  O   -0.423943
    13  O   -0.254233
    14  C    0.223066
    15  C    0.271534
    16  C    0.254944
    17  C    0.317879
    18  C    0.386578
    19  C    0.430140
    20  C   -0.237818
    21  C    0.229877
    22  C   -0.206544
    23  C   -0.733147
    24  C   -0.278259
    25  C   -0.752937
    26  C   -0.699540
    27  C    0.695332
    28  C   -0.601822
    29  C   -0.242296
    30  C    0.446745
    31  C   -0.052358
    32  C   -0.102611
    33  C    0.176722
    34  H    0.282498
    35  H    0.280213
    36  H    0.394011
    37  H    0.437513
 Sum of Mulliken charges =  -0.00000
 Mulliken charges with hydrogens summed into heavy atoms:
               1
     1  I    0.193929
     2  I    0.154037
     3  I    0.193586
     4  I    0.149070
     5  Cl   0.023562
     6  Cl   0.027846
     7  Cl   0.038254
     8  Cl   0.041629
     9  O   -0.306543
    10  O   -0.047420
    11  O   -0.315484
    12  O    0.013569
    13  O   -0.254233
    14  C    0.223066
    15  C    0.271534
    16  C    0.254944
    17  C    0.317879
    18  C    0.386578
    19  C    0.430140
    20  C    0.044680
    21  C    0.229877
    22  C    0.073669
    23  C   -0.733147
    24  C   -0.278259
    25  C   -0.752937
    26  C   -0.699540
    27  C    0.695332
    28  C   -0.601822
    29  C   -0.242296
    30  C    0.446745
    31  C   -0.052358
    32  C   -0.102611
    33  C    0.176722
 Electronic spatial extent (au):  <R**2>=          47160.3554
 Charge=              0.0000 electrons
 Dipole moment (field-independent basis, Debye):
    X=              9.4639    Y=             -9.0441    Z=             -1.9922  Tot=             13.2412
 Quadrupole moment (field-independent basis, Debye-Ang):
   XX=           -163.7695   YY=           -321.6488   ZZ=           -286.3720
   XY=              0.2962   XZ=             -8.9765   YZ=              3.8368
 Traceless Quadrupole moment (field-independent basis, Debye-Ang):
   XX=             93.4940   YY=            -64.3854   ZZ=            -29.1086
   XY=              0.2962   XZ=             -8.9765   YZ=              3.8368
 Octapole moment (field-independent basis, Debye-Ang**2):
  XXX=          -3950.0901  YYY=          -2542.7793  ZZZ=            -27.1550  XYY=          -1563.2684
  XXY=           -374.6055  XXZ=             -7.6840  XZZ=          -1714.8036  YZZ=           -661.4995
  YYZ=             51.7104  XYZ=             40.3932
 Hexadecapole moment (field-independent basis, Debye-Ang**3):
 XXXX=         -67079.2169 YYYY=         -26835.7948 ZZZZ=          -3214.2664 XXXY=          -8492.9455
 XXXZ=            482.5441 YYYX=         -12500.8504 YYYZ=            399.3429 ZZZX=           -121.4213
 ZZZY=             49.8420 XXYY=         -14279.7609 XXZZ=         -13488.4136 YYZZ=          -4350.2582
 XXYZ=            486.2174 YYXZ=            396.6304 ZZXY=          -3921.6569
 N-N= 2.947389284185D+03 E-N=-8.754519653523D+03  KE= 1.169341778172D+03
 Unable to Open any file for archive entry.
 1\1\GINC-SE055\FOpt\RB3LYP\LANL2DZ\C20H4Cl4I4O5\KEIGHAN\14-Jun-2024\0\
 \#opt B3LYP/LANL2DZ scrf=(solvent=water) int=ultrafine Nosymm\\Rose Be
 ngal ground state geometry optimization\\0,1\I,1.0136550846,0.18227562
 67,0.0312094094\I,1.1347783084,4.8269659392,-0.0432371916\I,6.15111744
 33,-3.1827302791,0.0233993729\I,6.4385193188,7.9284109005,-0.258730507
 4\Cl,7.323261769,2.2286140868,-2.8602998441\Cl,10.687016641,2.30770172
 58,2.5796126467\Cl,10.5234129534,2.106754321,-2.9627523651\Cl,12.21242
 62449,2.152228331,-0.2374394359\O,3.2691664496,2.4425992597,-0.0346245
 609\O,2.9491060361,-2.3056733642,0.034743258\O,3.295362517,7.224883408
 8,-0.1479090972\O,7.7436831246,3.5335328217,3.193329509\O,6.9063711325
 ,1.4721830129,2.8163428136\C,6.0884547598,2.3934380417,-0.0755806997\C
 ,5.3404220286,1.1587670757,-0.0471219839\C,5.4230702245,3.6167474168,-
 0.0938796284\C,7.5901415207,2.3407500533,-0.1060185701\C,3.9192744753,
 1.2174369532,-0.0285189114\C,3.9675958165,3.6460041416,-0.0703937121\C
 ,5.9529307916,-0.1197643993,-0.0309049729\C,8.3439489498,2.3831758958,
 1.091737859\C,6.1052727448,4.8915955996,-0.1510719584\C,3.1249506177,0
 .0618864176,0.0001658343\C,8.2770014478,2.261478045,-1.3323135621\C,3.
 2509749975,4.8212750275,-0.0851128861\C,5.1869649451,-1.2783599785,-0.
 0048331858\C,3.7611081289,-1.2000596439,0.0095100218\C,5.4125296259,6.
 068388457,-0.1707678071\C,9.747898841,2.3209342161,1.0389332925\C,3.92
 69824892,6.1237892253,-0.1338095587\C,9.6811372757,2.2096798404,-1.385
 1941963\C,10.4233154448,2.2349899949,-0.1898007139\C,7.6142304226,2.40
 5356768,2.4207018742\H,7.033711618,-0.1878539311,-0.0341955615\H,7.188
 6825079,4.8931777674,-0.1855323627\H,3.441564089,-3.1582877235,0.03973
 92776\H,8.2864792138,4.2571089485,2.8084781042\\Version=ES64L-G16RevC.
 01\HF=-1245.7208854\RMSD=3.745e-09\RMSF=4.412e-06\Dipole=3.7233688,-3.
 5582401,-0.7837873\Quadrupole=69.5104675,-47.8689679,-21.6414996,0.220
 2538,-6.6737967,2.852542\PG=C01 [X(C20H4Cl4I4O5)]\\@
 The archive entry for this job was punched.


 10 WHATSOEVER THY HAND FINDETH TO DO, DO IT WITH THY  
 MIGHT. FOR THERE IS NO WORK, NOR DEVICE, NOR KNOWLEDGE, NOR  
 WISDOM, IN THE GRAVE, WHITHER THOU GOEST.                    
 11 I RETURNED AND SAW UNDER THE SUN, THAT THE RACE IS NOT TO 
 THE SWIFT, NOR THE BATTLE TO THE STRONG, NEITHER YET BREAD TO
 THE WISE, NOR YET RICHES TO MEN OF UNDERSTANDING, NOR YET    
 FAVOR TO MEN OF SKILL. BUT TIME AND CHANCE HAPPEN TO THEM ALL.
 12 FOR MAN ALSO KNOWETH NOT HIS TIME. AS THE FISHES   
 THAT ARE TAKEN IN AN EVIL NET, AND AS THE BIRDS THAT ARE     
 CAUGHT IN THE SNARE. SO ARE THE SONS OF MEN SNARED IN AN EVIL
 TIME, WHEN IT FALLETH SUDDENLY UPON THEM.
                                         ECCLESIASTES 9
 Job cpu time:       0 days  7 hours 36 minutes  2.8 seconds.
 Elapsed time:       0 days  2 hours  2 minutes  5.5 seconds.
 File lengths (MBytes):  RWF=    540 Int=      0 D2E=      0 Chk=     14 Scr=      1
 Normal termination of Gaussian 16 at Fri Jun 14 15:19:23 2024.
