 Entering Gaussian System, Link 0=g16
 Initial command:
 /arc/software/Gaussian/g16.c01/l1.exe "/tmp/slurm/1185648/Gau-50763.inp" -scrdir="/tmp/slurm/1185648/"
 Entering Link 1 = /arc/software/Gaussian/g16.c01/l1.exe PID=     50764.
  
 Copyright (c) 1988-2019, Gaussian, Inc.  All Rights Reserved.
  
 This is part of the Gaussian(R) 16 program.  It is based on
 the Gaussian(R) 09 system (copyright 2009, Gaussian, Inc.),
 the Gaussian(R) 03 system (copyright 2003, Gaussian, Inc.),
 the Gaussian(R) 98 system (copyright 1998, Gaussian, Inc.),
 the Gaussian(R) 94 system (copyright 1995, Gaussian, Inc.),
 the Gaussian 92(TM) system (copyright 1992, Gaussian, Inc.),
 the Gaussian 90(TM) system (copyright 1990, Gaussian, Inc.),
 the Gaussian 88(TM) system (copyright 1988, Gaussian, Inc.),
 the Gaussian 86(TM) system (copyright 1986, Carnegie Mellon
 University), and the Gaussian 82(TM) system (copyright 1983,
 Carnegie Mellon University). Gaussian is a federally registered
 trademark of Gaussian, Inc.
  
 This software contains proprietary and confidential information,
 including trade secrets, belonging to Gaussian, Inc.
  
 This software is provided under written license and may be
 used, copied, transmitted, or stored only in accord with that
 written license.
  
 The following legend is applicable only to US Government
 contracts under FAR:
  
                    RESTRICTED RIGHTS LEGEND
  
 Use, reproduction and disclosure by the US Government is
 subject to restrictions as set forth in subparagraphs (a)
 and (c) of the Commercial Computer Software - Restricted
 Rights clause in FAR 52.227-19.
  
 Gaussian, Inc.
 340 Quinnipiac St., Bldg. 40, Wallingford CT 06492
  
  
 ---------------------------------------------------------------
 Warning -- This program may not be used in any manner that
 competes with the business of Gaussian, Inc. or will provide
 assistance to any competitor of Gaussian, Inc.  The licensee
 of this program is prohibited from giving any competitor of
 Gaussian, Inc. access to this program.  By using this program,
 the user acknowledges that Gaussian, Inc. is engaged in the
 business of creating and licensing software in the field of
 computational chemistry and represents and warrants to the
 licensee that it is not a competitor of Gaussian, Inc. and that
 it will not use this program in any manner prohibited above.
 ---------------------------------------------------------------
  

 Cite this work as:
 Gaussian 16, Revision C.01,
 M. J. Frisch, G. W. Trucks, H. B. Schlegel, G. E. Scuseria, 
 M. A. Robb, J. R. Cheeseman, G. Scalmani, V. Barone, 
 G. A. Petersson, H. Nakatsuji, X. Li, M. Caricato, A. V. Marenich, 
 J. Bloino, B. G. Janesko, R. Gomperts, B. Mennucci, H. P. Hratchian, 
 J. V. Ortiz, A. F. Izmaylov, J. L. Sonnenberg, D. Williams-Young, 
 F. Ding, F. Lipparini, F. Egidi, J. Goings, B. Peng, A. Petrone, 
 T. Henderson, D. Ranasinghe, V. G. Zakrzewski, J. Gao, N. Rega, 
 G. Zheng, W. Liang, M. Hada, M. Ehara, K. Toyota, R. Fukuda, 
 J. Hasegawa, M. Ishida, T. Nakajima, Y. Honda, O. Kitao, H. Nakai, 
 T. Vreven, K. Throssell, J. A. Montgomery, Jr., J. E. Peralta, 
 F. Ogliaro, M. J. Bearpark, J. J. Heyd, E. N. Brothers, K. N. Kudin, 
 V. N. Staroverov, T. A. Keith, R. Kobayashi, J. Normand, 
 K. Raghavachari, A. P. Rendell, J. C. Burant, S. S. Iyengar, 
 J. Tomasi, M. Cossi, J. M. Millam, M. Klene, C. Adamo, R. Cammi, 
 J. W. Ochterski, R. L. Martin, K. Morokuma, O. Farkas, 
 J. B. Foresman, and D. J. Fox, Gaussian, Inc., Wallingford CT, 2019.
 
 ******************************************
 Gaussian 16:  ES64L-G16RevC.01  3-Jul-2019
                14-Jun-2024 
 ******************************************
 %chk=ground_state_opt.chk
 %mem=128GB
 %nprocshared=4
 Will use up to    4 processors via shared memory.
 ----------------------------------------------------------------------
 # M062X/LANL2DZ TDA=(triplet,root=1) scrf=(solvent=water) int=ultrafin
 e Nosymm geom=checkpoint
 ----------------------------------------------------------------------
 1/29=2,38=1,172=1/1;
 2/12=2,15=1,40=1/2;
 3/5=6,6=3,11=9,14=-4,25=1,30=1,70=2201,72=1,74=-55,75=-5/1,2,3,8;
 4//1;
 5/5=2,38=5,53=1/2;
 8/6=1,10=1,107=1/1;
 9/8=1,42=1,48=3/14;
 6/7=2,8=2,9=2,10=2/1;
 99/5=1,9=1/99;
 -------------------------------------
 Rose Bengal triplet state calculation
 -------------------------------------
 Structure from the checkpoint file:  "ground_state_opt.chk"
 Charge =  0 Multiplicity = 3
 Redundant internal coordinates found in file.  (old form).
 I,0,1.0136550846,0.1822756267,0.0312094094
 I,0,1.1347783084,4.8269659392,-0.0432371916
 I,0,6.1511174433,-3.1827302791,0.0233993729
 I,0,6.4385193188,7.9284109005,-0.2587305074
 Cl,0,7.323261769,2.2286140868,-2.8602998441
 Cl,0,10.687016641,2.3077017258,2.5796126467
 Cl,0,10.5234129534,2.106754321,-2.9627523651
 Cl,0,12.2124262449,2.152228331,-0.2374394359
 O,0,3.2691664496,2.4425992597,-0.0346245609
 O,0,2.9491060361,-2.3056733642,0.034743258
 O,0,3.295362517,7.2248834088,-0.1479090972
 O,0,7.7436831246,3.5335328217,3.193329509
 O,0,6.9063711325,1.4721830129,2.8163428136
 C,0,6.0884547598,2.3934380417,-0.0755806997
 C,0,5.3404220286,1.1587670757,-0.0471219839
 C,0,5.4230702245,3.6167474168,-0.0938796284
 C,0,7.5901415207,2.3407500533,-0.1060185701
 C,0,3.9192744753,1.2174369532,-0.0285189114
 C,0,3.9675958165,3.6460041416,-0.0703937121
 C,0,5.9529307916,-0.1197643993,-0.0309049729
 C,0,8.3439489498,2.3831758958,1.091737859
 C,0,6.1052727448,4.8915955996,-0.1510719584
 C,0,3.1249506177,0.0618864176,0.0001658343
 C,0,8.2770014478,2.261478045,-1.3323135621
 C,0,3.2509749975,4.8212750275,-0.0851128861
 C,0,5.1869649451,-1.2783599785,-0.0048331858
 C,0,3.7611081289,-1.2000596439,0.0095100218
 C,0,5.4125296259,6.068388457,-0.1707678071
 C,0,9.747898841,2.3209342161,1.0389332925
 C,0,3.9269824892,6.1237892253,-0.1338095587
 C,0,9.6811372757,2.2096798404,-1.3851941963
 C,0,10.4233154448,2.2349899949,-0.1898007139
 C,0,7.6142304226,2.405356768,2.4207018742
 H,0,7.033711618,-0.1878539311,-0.0341955615
 H,0,7.1886825079,4.8931777674,-0.1855323627
 H,0,3.441564089,-3.1582877235,0.0397392776
 H,0,8.2864792138,4.2571089485,2.8084781042
 Recover connectivity data from disk.
                           ----------------------------
                           !    Current Parameters    !
                           ! (Angstroms and Degrees)  !
 --------------------------                            --------------------------
 ! Name  Definition              Value                                          !
 --------------------------------------------------------------------------------
 ! R1    R(1,23)                 2.115                                          !
 ! R2    R(2,25)                 2.1166                                         !
 ! R3    R(3,26)                 2.1347                                         !
 ! R4    R(4,28)                 2.126                                          !
 ! R5    R(5,24)                 1.8015                                         !
 ! R6    R(6,29)                 1.8044                                         !
 ! R7    R(7,31)                 1.7913                                         !
 ! R8    R(8,32)                 1.7917                                         !
 ! R9    R(9,18)                 1.387                                          !
 ! R10   R(9,19)                 1.3919                                         !
 ! R11   R(10,27)                1.372                                          !
 ! R12   R(10,36)                0.9846                                         !
 ! R13   R(11,30)                1.2695                                         !
 ! R14   R(12,33)                1.3735                                         !
 ! R15   R(12,37)                0.983                                          !
 ! R16   R(13,33)                1.2363                                         !
 ! R17   R(14,15)                1.4439                                         !
 ! R18   R(14,16)                1.3927                                         !
 ! R19   R(14,17)                1.5029                                         !
 ! R20   R(15,18)                1.4225                                         !
 ! R21   R(15,20)                1.4178                                         !
 ! R22   R(16,19)                1.456                                          !
 ! R23   R(16,22)                1.447                                          !
 ! R24   R(17,21)                1.4159                                         !
 ! R25   R(17,24)                1.4078                                         !
 ! R26   R(18,23)                1.4025                                         !
 ! R27   R(19,25)                1.3766                                         !
 ! R28   R(20,26)                1.3891                                         !
 ! R29   R(20,34)                1.0829                                         !
 ! R30   R(21,29)                1.4063                                         !
 ! R31   R(21,33)                1.5163                                         !
 ! R32   R(22,28)                1.3657                                         !
 ! R33   R(22,35)                1.084                                          !
 ! R34   R(23,27)                1.4133                                         !
 ! R35   R(24,31)                1.4061                                         !
 ! R36   R(25,30)                1.4683                                         !
 ! R37   R(26,27)                1.4281                                         !
 ! R38   R(28,30)                1.487                                          !
 ! R39   R(29,32)                1.4048                                         !
 ! R40   R(31,32)                1.4073                                         !
 ! A1    A(18,9,19)            121.9138                                         !
 ! A2    A(27,10,36)           113.6963                                         !
 ! A3    A(33,12,37)           115.876                                          !
 ! A4    A(15,14,16)           120.2552                                         !
 ! A5    A(15,14,17)           119.2138                                         !
 ! A6    A(16,14,17)           120.5246                                         !
 ! A7    A(14,15,18)           118.8538                                         !
 ! A8    A(14,15,20)           123.1981                                         !
 ! A9    A(18,15,20)           117.9475                                         !
 ! A10   A(14,16,19)           119.6732                                         !
 ! A11   A(14,16,22)           123.3079                                         !
 ! A12   A(19,16,22)           117.0152                                         !
 ! A13   A(14,17,21)           120.9162                                         !
 ! A14   A(14,17,24)           120.472                                          !
 ! A15   A(21,17,24)           118.6088                                         !
 ! A16   A(9,18,15)            120.3088                                         !
 ! A17   A(9,18,23)            117.5429                                         !
 ! A18   A(15,18,23)           122.148                                          !
 ! A19   A(9,19,16)            118.9909                                         !
 ! A20   A(9,19,25)            118.5032                                         !
 ! A21   A(16,19,25)           122.5057                                         !
 ! A22   A(15,20,26)           120.9389                                         !
 ! A23   A(15,20,34)           119.1981                                         !
 ! A24   A(26,20,34)           119.8623                                         !
 ! A25   A(17,21,29)           119.8953                                         !
 ! A26   A(17,21,33)           119.0561                                         !
 ! A27   A(29,21,33)           120.9306                                         !
 ! A28   A(16,22,28)           121.3709                                         !
 ! A29   A(16,22,35)           118.2781                                         !
 ! A30   A(28,22,35)           120.3495                                         !
 ! A31   A(1,23,18)            121.2501                                         !
 ! A32   A(1,23,27)            120.0059                                         !
 ! A33   A(18,23,27)           118.7439                                         !
 ! A34   A(5,24,17)            118.7868                                         !
 ! A35   A(5,24,31)            119.7427                                         !
 ! A36   A(17,24,31)           121.4704                                         !
 ! A37   A(2,25,19)            121.5037                                         !
 ! A38   A(2,25,30)            117.2956                                         !
 ! A39   A(19,25,30)           121.2006                                         !
 ! A40   A(3,26,20)            119.6861                                         !
 ! A41   A(3,26,27)            119.9822                                         !
 ! A42   A(20,26,27)           120.331                                          !
 ! A43   A(10,27,23)           116.9543                                         !
 ! A44   A(10,27,26)           123.1561                                         !
 ! A45   A(23,27,26)           119.8895                                         !
 ! A46   A(4,28,22)            120.6419                                         !
 ! A47   A(4,28,30)            116.7778                                         !
 ! A48   A(22,28,30)           122.5803                                         !
 ! A49   A(6,29,21)            119.1994                                         !
 ! A50   A(6,29,32)            119.7467                                         !
 ! A51   A(21,29,32)           121.0339                                         !
 ! A52   A(11,30,25)           122.7333                                         !
 ! A53   A(11,30,28)           121.9437                                         !
 ! A54   A(25,30,28)           115.3226                                         !
 ! A55   A(7,31,24)            120.3176                                         !
 ! A56   A(7,31,32)            120.0753                                         !
 ! A57   A(24,31,32)           119.6068                                         !
 ! A58   A(8,32,29)            120.4113                                         !
 ! A59   A(8,32,31)            120.2132                                         !
 ! A60   A(29,32,31)           119.3751                                         !
 ! A61   A(12,33,13)           119.6001                                         !
 ! A62   A(12,33,21)           117.367                                          !
 ! A63   A(13,33,21)           123.0244                                         !
 ! D1    D(19,9,18,15)           0.5623                                         !
 ! D2    D(19,9,18,23)        -179.6124                                         !
 ! D3    D(18,9,19,16)          -0.3792                                         !
 ! D4    D(18,9,19,25)         179.4824                                         !
 ! D5    D(36,10,27,23)        179.9659                                         !
 ! D6    D(36,10,27,26)         -0.1461                                         !
 ! D7    D(37,12,33,13)       -177.3662                                         !
 ! D8    D(37,12,33,21)          1.6063                                         !
 ! D9    D(16,14,15,18)         -0.4462                                         !
 ! D10   D(16,14,15,20)        179.8314                                         !
 ! D11   D(17,14,15,18)       -179.5352                                         !
 ! D12   D(17,14,15,20)          0.7424                                         !
 ! D13   D(15,14,16,19)          0.6246                                         !
 ! D14   D(15,14,16,22)       -178.6526                                         !
 ! D15   D(17,14,16,19)        179.7016                                         !
 ! D16   D(17,14,16,22)          0.4243                                         !
 ! D17   D(15,14,17,21)        -92.6033                                         !
 ! D18   D(15,14,17,24)         88.0405                                         !
 ! D19   D(16,14,17,21)         88.3102                                         !
 ! D20   D(16,14,17,24)        -91.046                                          !
 ! D21   D(14,15,18,9)          -0.1464                                         !
 ! D22   D(14,15,18,23)       -179.9634                                         !
 ! D23   D(20,15,18,9)         179.5907                                         !
 ! D24   D(20,15,18,23)         -0.2264                                         !
 ! D25   D(14,15,20,26)       -179.9401                                         !
 ! D26   D(14,15,20,34)          0.3551                                         !
 ! D27   D(18,15,20,26)          0.3351                                         !
 ! D28   D(18,15,20,34)       -179.3696                                         !
 ! D29   D(14,16,19,9)          -0.2219                                         !
 ! D30   D(14,16,19,25)        179.9223                                         !
 ! D31   D(22,16,19,9)         179.1001                                         !
 ! D32   D(22,16,19,25)         -0.7557                                         !
 ! D33   D(14,16,22,28)        179.8256                                         !
 ! D34   D(14,16,22,35)          0.2632                                         !
 ! D35   D(19,16,22,28)          0.5305                                         !
 ! D36   D(19,16,22,35)       -179.0319                                         !
 ! D37   D(14,17,21,29)        179.456                                          !
 ! D38   D(14,17,21,33)          3.368                                          !
 ! D39   D(24,17,21,29)         -1.176                                          !
 ! D40   D(24,17,21,33)       -177.2641                                         !
 ! D41   D(14,17,24,5)           0.1481                                         !
 ! D42   D(14,17,24,31)       -179.9322                                         !
 ! D43   D(21,17,24,5)        -179.2227                                         !
 ! D44   D(21,17,24,31)          0.697                                          !
 ! D45   D(9,18,23,1)            0.054                                          !
 ! D46   D(9,18,23,27)        -179.884                                          !
 ! D47   D(15,18,23,1)         179.8759                                         !
 ! D48   D(15,18,23,27)         -0.0621                                         !
 ! D49   D(9,19,25,2)            0.3623                                         !
 ! D50   D(9,19,25,30)        -179.4921                                         !
 ! D51   D(16,19,25,2)        -179.7812                                         !
 ! D52   D(16,19,25,30)          0.3644                                         !
 ! D53   D(15,20,26,3)        -179.8603                                         !
 ! D54   D(15,20,26,27)         -0.1571                                         !
 ! D55   D(34,20,26,3)          -0.1575                                         !
 ! D56   D(34,20,26,27)        179.5457                                         !
 ! D57   D(17,21,29,6)        -177.4931                                         !
 ! D58   D(17,21,29,32)          0.8751                                         !
 ! D59   D(33,21,29,6)          -1.4797                                         !
 ! D60   D(33,21,29,32)        176.8884                                         !
 ! D61   D(17,21,33,12)       -114.9453                                         !
 ! D62   D(17,21,33,13)         63.9891                                         !
 ! D63   D(29,21,33,12)         69.0084                                         !
 ! D64   D(29,21,33,13)       -112.0572                                         !
 ! D65   D(16,22,28,4)        -179.8826                                         !
 ! D66   D(16,22,28,30)          0.0696                                         !
 ! D67   D(35,22,28,4)          -0.3291                                         !
 ! D68   D(35,22,28,30)        179.623                                          !
 ! D69   D(1,23,27,10)           0.2004                                         !
 ! D70   D(1,23,27,26)        -179.6915                                         !
 ! D71   D(18,23,27,10)       -179.8608                                         !
 ! D72   D(18,23,27,26)          0.2473                                         !
 ! D73   D(5,24,31,7)           -0.1699                                         !
 ! D74   D(5,24,31,32)        -179.9747                                         !
 ! D75   D(17,24,31,7)         179.9112                                         !
 ! D76   D(17,24,31,32)          0.1063                                         !
 ! D77   D(2,25,30,11)           0.1701                                         !
 ! D78   D(2,25,30,28)        -179.6185                                         !
 ! D79   D(19,25,30,11)       -179.9696                                         !
 ! D80   D(19,25,30,28)          0.2417                                         !
 ! D81   D(3,26,27,10)          -0.3241                                         !
 ! D82   D(3,26,27,23)         179.5608                                         !
 ! D83   D(20,26,27,10)        179.9736                                         !
 ! D84   D(20,26,27,23)         -0.1415                                         !
 ! D85   D(4,28,30,11)          -0.2991                                         !
 ! D86   D(4,28,30,25)         179.4914                                         !
 ! D87   D(22,28,30,11)        179.747                                          !
 ! D88   D(22,28,30,25)         -0.4625                                         !
 ! D89   D(6,29,32,8)           -1.4793                                         !
 ! D90   D(6,29,32,31)         178.2995                                         !
 ! D91   D(21,29,32,8)        -179.8387                                         !
 ! D92   D(21,29,32,31)         -0.0598                                         !
 ! D93   D(7,31,32,8)           -0.4561                                         !
 ! D94   D(7,31,32,29)         179.7646                                         !
 ! D95   D(24,31,32,8)         179.3492                                         !
 ! D96   D(24,31,32,29)         -0.4301                                         !
 --------------------------------------------------------------------------------
                          Input orientation:                          
 ---------------------------------------------------------------------
 Center     Atomic      Atomic             Coordinates (Angstroms)
 Number     Number       Type             X           Y           Z
 ---------------------------------------------------------------------
      1         53           0        1.013655    0.182276    0.031209
      2         53           0        1.134778    4.826966   -0.043237
      3         53           0        6.151117   -3.182730    0.023399
      4         53           0        6.438519    7.928411   -0.258731
      5         17           0        7.323262    2.228614   -2.860300
      6         17           0       10.687017    2.307702    2.579613
      7         17           0       10.523413    2.106754   -2.962752
      8         17           0       12.212426    2.152228   -0.237439
      9          8           0        3.269166    2.442599   -0.034625
     10          8           0        2.949106   -2.305673    0.034743
     11          8           0        3.295363    7.224883   -0.147909
     12          8           0        7.743683    3.533533    3.193330
     13          8           0        6.906371    1.472183    2.816343
     14          6           0        6.088455    2.393438   -0.075581
     15          6           0        5.340422    1.158767   -0.047122
     16          6           0        5.423070    3.616747   -0.093880
     17          6           0        7.590142    2.340750   -0.106019
     18          6           0        3.919274    1.217437   -0.028519
     19          6           0        3.967596    3.646004   -0.070394
     20          6           0        5.952931   -0.119764   -0.030905
     21          6           0        8.343949    2.383176    1.091738
     22          6           0        6.105273    4.891596   -0.151072
     23          6           0        3.124951    0.061886    0.000166
     24          6           0        8.277001    2.261478   -1.332314
     25          6           0        3.250975    4.821275   -0.085113
     26          6           0        5.186965   -1.278360   -0.004833
     27          6           0        3.761108   -1.200060    0.009510
     28          6           0        5.412530    6.068388   -0.170768
     29          6           0        9.747899    2.320934    1.038933
     30          6           0        3.926982    6.123789   -0.133810
     31          6           0        9.681137    2.209680   -1.385194
     32          6           0       10.423315    2.234990   -0.189801
     33          6           0        7.614230    2.405357    2.420702
     34          1           0        7.033712   -0.187854   -0.034196
     35          1           0        7.188683    4.893178   -0.185532
     36          1           0        3.441564   -3.158288    0.039739
     37          1           0        8.286479    4.257109    2.808478
 ---------------------------------------------------------------------
                    Distance matrix (angstroms):
                    1          2          3          4          5
     1  I    0.000000
     2  I    4.646866   0.000000
     3  I    6.141404   9.451102   0.000000
     4  I    9.461281   6.147769  11.118438   0.000000
     5  Cl   7.235984   7.279052   6.242779   6.327607   0.000000
     6  Cl  10.226716  10.221120   7.566601   7.595939   6.396386
     7  Cl  10.153961  10.201450   7.484164   7.608533   3.204109
     8  Cl  11.373889  11.397641   8.078941   8.167175   5.548798
     9  O    3.193858   3.200139   6.320866   6.339491   4.946304
    10  O    3.152122   7.360191   3.319975  10.816590   6.933562
    11  O    7.405174   3.229410  10.793660   3.222835   6.967334
    12  O    8.156176   7.471677   7.595585   5.738913   6.206931
    13  O    6.644165   7.262441   5.480799   7.166438   5.741973
    14  C    5.536627   5.519240   5.577399   5.549055   3.050668
    15  C    4.436280   5.580604   4.417103   6.861390   3.604191
    16  C    5.590544   4.456079   6.839350   4.432692   3.631903
    17  C    6.923006   6.917870   5.709323   5.707145   2.769452
    18  C    3.085085   4.558765   4.934095   7.171943   4.541871
    19  C    4.553406   3.069245   7.169950   4.947721   4.588362
    20  C    4.948892   6.905424   3.069851   8.066029   3.924049
    21  C    7.726700   7.696260   6.076937   6.016981   4.084641
    22  C    6.937975   4.972084   8.076341   3.056941   3.989346
    23  C    2.114953   5.164170   4.436864   8.539846   5.522933
    24  C    7.677140   7.697714   5.999729   6.053654   1.801511
    25  C    5.151645   2.116619   8.513912   4.454759   5.568399
    26  C    4.421682   7.327803   2.134716   9.294917   5.001632
    27  C    3.075682   6.574605   3.105370   9.516799   5.716691
    28  C    7.351001   4.456069   9.282586   2.126047   5.062445
    29  C    9.048557   9.035327   6.652704   6.639256   4.592538
    30  C    6.619388   3.079993   9.569890   3.095171   5.843017
    31  C    9.013424   9.038323   6.597216   6.669886   2.781344
    32  C    9.633493   9.644519   6.902813   6.949705   4.091691
    33  C    7.363380   7.342921   6.254157   6.250263   5.291964
    34  H    6.031779   7.742475   3.122751   8.141156   3.729614
    35  H    7.769848   6.055938   8.144967   3.127418   3.777882
    36  H    4.129670   8.312185   2.709713  11.488503   7.245448
    37  H    8.787005   7.720353   8.226034   5.128468   6.097346
                    6          7          8          9         10
     6  Cl   0.000000
     7  Cl   5.548419   0.000000
     8  Cl   3.207309   3.206581   0.000000
     9  O    7.866189   7.830122   8.950271   0.000000
    10  O    9.361349   9.264158  10.283777   4.759553   0.000000
    11  O    9.287336   9.293186  10.259331   4.783697   9.538594
    12  O    3.246925   6.903618   5.800676   5.624155   8.189076
    13  O    3.879100   6.847161   6.159730   4.722180   6.137544
    14  C    5.310760   5.299698   6.130857   2.820014   5.652374
    15  C    6.066783   6.021875   6.946051   2.436900   4.210397
    16  C    6.047338   6.043509   6.946998   2.453862   6.419666
    17  C    4.099310   4.101190   4.627994   4.322765   6.568735
    18  C    7.334396   7.281158   8.348284   1.386975   3.654796
    19  C    7.346033   7.328968   8.380722   1.391857   6.039109
    20  C    5.926125   5.868767   6.662274   3.710568   3.715571
    21  C    2.776587   4.611438   4.096970   5.198619   7.225433
    22  C    5.926679   5.931345   6.693946   3.748952   7.861081
    23  C    8.299523   8.227856   9.327819   2.385331   2.374333
    24  C    4.594940   2.780042   4.086350   5.176409   7.149419
    25  C    8.289362   8.278755   9.351718   2.379281   7.134345
    26  C    7.056186   6.977533   7.821774   4.186213   2.462712
    27  C    8.177899   8.093091   9.095251   3.675992   1.371993
    28  C    7.037583   7.043497   7.847251   4.214130   8.731300
    29  C    1.804386   4.081762   2.780555   6.568204   8.284774
    30  C    8.223335   8.225107   9.188722   3.740818   8.487667
    31  C    4.091588   1.791288   2.779940   6.556803   8.229513
    32  C    2.782890   2.777719   1.791657   7.158843   8.748248
    33  C    3.078442   6.126507   5.317254   4.990951   7.046275
    34  H    5.138719   5.100950   5.686508   4.592503   4.601512
    35  H    5.154518   5.157280   5.723067   4.625010   8.357391
    36  H    9.424679   9.321384  10.257019   5.604033   0.984627
    37  H    3.100830   6.552480   5.396406   6.045586   8.902318
                   11         12         13         14         15
    11  O    0.000000
    12  O    6.676638   0.000000
    13  O    7.410785   2.256629   0.000000
    14  C    5.581170   3.837365   3.143393   0.000000
    15  C    6.402358   4.681421   3.278697   1.443875   0.000000
    16  C    4.189117   4.024663   3.907523   1.392680   2.459814
    17  C    6.503971   3.511695   3.124443   1.502919   2.542005
    18  C    6.040938   5.510963   4.132902   2.467901   1.422480
    19  C    3.642291   4.992332   4.657805   2.463126   2.841046
    20  C    7.811543   5.191249   3.398553   2.517250   1.417770
    21  C    7.104019   2.469884   2.422973   2.539683   3.437638
    22  C    3.652374   3.964057   4.597792   2.499355   3.811799
    23  C    7.166554   6.601614   4.921273   3.771502   2.472589
    24  C    7.131264   4.731173   4.439928   2.527158   3.389865
    25  C    2.404838   5.708843   5.744283   3.734404   4.216776
    26  C    8.712277   6.318177   4.298939   3.781506   2.442320
    27  C    8.439275   6.957335   4.991179   4.282173   2.839279
    28  C    2.412550   4.814241   5.681505   3.737806   4.911707
    29  C    8.191003   3.182562   3.457433   3.826085   4.685723
    30  C    1.269469   5.687397   6.262395   4.311713   5.163020
    31  C    8.213480   5.144822   5.088825   3.828345   4.662260
    32  C    8.701063   4.506907   4.689101   4.339259   5.197540
    33  C    6.962630   1.373497   1.236289   2.925673   3.579713
    34  H    8.302822   4.976916   3.301137   2.749235   2.163512
    35  H    4.538304   3.684205   4.560061   2.733366   4.169058
    36  H   10.385896   8.557676   6.415269   6.151503   4.717008
    37  H    6.516069   0.983006   3.108146   4.077055   5.141345
                   16         17         18         19         20
    16  C    0.000000
    17  C    2.514859   0.000000
    18  C    2.832378   3.839675   0.000000
    19  C    1.455958   3.850688   2.429409   0.000000
    20  C    3.774419   2.956388   2.433900   4.257244   0.000000
    21  C    3.385103   1.415855   4.710803   4.700825   3.638957
    22  C    1.447035   2.951894   4.277037   2.475413   5.015115
    23  C    4.234057   5.014222   1.402523   3.682517   2.833979
    24  C    3.393434   1.407786   4.666871   4.698971   3.572854
    25  C    2.483739   4.998180   3.665716   1.376599   5.631818
    26  C    4.901607   4.345510   2.799393   5.073512   1.389146
    27  C    5.096512   5.216529   2.422964   4.851119   2.443923
    28  C    2.452869   4.317577   5.077576   2.822385   6.213279
    29  C    4.654733   2.442790   6.027439   6.033102   4.637170
    30  C    2.919783   5.266013   4.907488   2.478929   6.564832
    31  C    4.666741   2.454737   6.002014   6.036247   4.599993
    32  C    5.188536   2.836385   6.585133   6.609201   5.055141
    33  C    3.548488   2.527661   4.589394   4.587233   3.891854
    34  H    4.131915   2.590099   3.416810   4.909261   1.082929
    35  H    2.180610   2.585030   4.921865   3.456024   5.165325
    36  H    7.060122   6.889946   4.402253   6.825484   3.942661
    37  H    4.127088   3.556910   6.029978   5.226290   5.715292
                   21         22         23         24         25
    21  C    0.000000
    22  C    3.584469   0.000000
    23  C    5.815312   5.677260   0.000000
    24  C    2.428028   3.609606   5.758240   0.000000
    25  C    5.767815   2.855926   4.761821   5.776592   0.000000
    26  C    4.957405   6.239634   2.459307   4.882723   6.400004
    27  C    5.917197   6.529101   1.413256   5.846027   6.043646
    28  C    4.875237   1.365695   6.429643   4.903769   2.496988
    29  C    1.406321   4.614449   7.074304   2.791037   7.051610
    30  C    5.916396   2.502708   6.116197   5.939404   1.468299
    31  C    2.820171   4.637083   7.036748   1.406086   7.060993
    32  C    2.447052   5.069965   7.617388   2.431605   7.625110
    33  C    1.516287   3.882313   5.612885   3.813803   5.581556
    34  H    3.097522   5.164927   3.916882   3.038109   6.277186
    35  H    3.044038   1.083959   6.315835   3.070080   3.939644
    36  H    7.473145   8.481296   3.235944   7.391742   7.982815
    37  H    2.542071   3.730841   7.219964   4.596606   5.835020
                   26         27         28         29         30
    26  C    0.000000
    27  C    1.428077   0.000000
    28  C    7.352083   7.455872   0.000000
    29  C    5.903091   7.021309   5.856809   0.000000
    30  C    7.509727   7.327129   1.487039   7.051248   0.000000
    31  C    5.854007   6.972680   5.880942   2.427597   7.070821
    32  C    6.308503   7.498286   6.308984   1.404764   7.571541
    33  C    5.034343   5.801674   4.998100   2.543414   5.826497
    34  H    2.144887   3.425844   6.464321   3.848693   7.035519
    35  H    6.490563   6.993844   2.129802   3.829535   3.486512
    36  H    2.565646   1.984359   9.437191   8.413686   9.296381
    37  H    6.939966   7.621935   4.518432   3.002634   5.580929
                   31         32         33         34         35
    31  C    0.000000
    32  C    1.407279   0.000000
    33  C    4.335348   3.838581   0.000000
    34  H    3.818668   4.169388   3.617771   0.000000
    35  H    3.853918   4.186745   3.628058   5.085647   0.000000
    36  H    8.353310   8.825247   7.350800   4.661809   8.883566
    37  H    4.870721   4.200561   2.007804   5.422907   3.251744
                   36         37
    36  H    0.000000
    37  H    9.280475   0.000000
 Symmetry turned off by external request.
 Stoichiometry    C20H4Cl4I4O5(3)
 Framework group  C1[X(C20H4Cl4I4O5)]
 Deg. of freedom   105
 Full point group                 C1      NOp   1
 Rotational constants (GHZ):           0.0436882           0.0410835           0.0236974
 Standard basis: LANL2DZ (5D, 7F)
   297 basis functions,   737 primitive gaussians,   297 cartesian basis functions
   111 alpha electrons      109 beta electrons
       nuclear repulsion energy      2947.3892841850 Hartrees.
 NAtoms=   37 NActive=   37 NUniq=   37 SFac= 1.00D+00 NAtFMM=   60 NAOKFM=F Big=F
 Integral buffers will be    131072 words long.
 Regular integral format.
 Two-electron integral symmetry is turned off.
 ------------------------------------------------------------------------------
 Polarizable Continuum Model (PCM)
 =================================
 Model                : PCM.
 Atomic radii         : UFF (Universal Force Field).
 Polarization charges : Total charges.
 Charge compensation  : None.
 Solution method      : On-the-fly selection.
 Cavity type          : Scaled VdW (van der Waals Surface) (Alpha=1.100).
 Cavity algorithm     : GePol (No added spheres)
                        Default sphere list used, NSphG=   37.
                        Lebedev-Laikov grids with approx.  5.0 points / Ang**2.
                        Smoothing algorithm: York/Karplus (Gamma=1.0000).
                        Polarization charges: spherical gaussians, with
                                              point-specific exponents (IZeta= 3).
                        Self-potential: point-specific (ISelfS= 7).
                        Self-field    : sphere-specific E.n sum rule (ISelfD= 2).
 Solvent              : Water, Eps=  78.355300 Eps(inf)=   1.777849
 ------------------------------------------------------------------------------
 One-electron integrals computed using PRISM.
   1 Symmetry operations used in ECPInt.
 ECPInt:  NShTT=   13695 NPrTT=   97308 LenC2=   12743 LenP2D=   52856.
 LDataN:  DoStor=T MaxTD1= 4 Len=   56
 NBasis=   297 RedAO= T EigKep=  2.09D-04  NBF=   297
 NBsUse=   297 1.00D-06 EigRej= -1.00D+00 NBFU=   297
 Defaulting to unpruned grid for atomic number  53.
 ExpMin= 1.05D-01 ExpMax= 7.82D+03 ExpMxC= 2.73D+02 IAcc=3 IRadAn=         5 AccDes= 0.00D+00
 Harris functional with IExCor= 1009 and IRadAn=       5 diagonalized for initial guess.
 HarFok:  IExCor= 1009 AccDes= 0.00D+00 IRadAn=         5 IDoV= 1 UseB2=F ITyADJ=14
 ICtDFT=  3500011 ScaDFX=  1.000000  1.000000  1.000000  1.000000
 Defaulting to unpruned grid for atomic number  53.
 FoFCou: FMM=F IPFlag=           0 FMFlag=      100000 FMFlg1=           0
         NFxFlg=           0 DoJE=T BraDBF=F KetDBF=T FulRan=T
         wScrn=  0.000000 ICntrl=       500 IOpCl=  0 I1Cent=   200000004 NGrid=           0
         NMat0=    1 NMatS0=      1 NMatT0=    0 NMatD0=    1 NMtDS0=    0 NMtDT0=    0
 Symmetry not used in FoFCou.
 Initial guess <Sx>= 0.0000 <Sy>= 0.0000 <Sz>= 1.0000 <S**2>= 2.0000 S= 1.0000
 Requested convergence on RMS density matrix=1.00D-08 within 128 cycles.
 Requested convergence on MAX density matrix=1.00D-06.
 Requested convergence on             energy=1.00D-06.
 No special actions if energy rises.
 Defaulting to unpruned grid for atomic number  53.
 Defaulting to unpruned grid for atomic number  53.
 Defaulting to unpruned grid for atomic number  53.
 Defaulting to unpruned grid for atomic number  53.
 Inv3:  Mode=1 IEnd=    44213763.
 Iteration    1 A*A^-1 deviation from unit magnitude is 7.99D-15 for   3834.
 Iteration    1 A*A^-1 deviation from orthogonality  is 2.76D-15 for   3821   3516.
 Iteration    1 A^-1*A deviation from unit magnitude is 8.22D-15 for   3834.
 Iteration    1 A^-1*A deviation from orthogonality  is 4.18D-15 for   3826    339.
 Restarting incremental Fock formation.
 Error on total polarization charges =  0.02267
 SCF Done:  E(UM062X) =  -1244.92895696     A.U. after   24 cycles
            NFock= 24  Conv=0.96D-08     -V/T= 2.0652
 <Sx>= 0.0000 <Sy>= 0.0000 <Sz>= 1.0000 <S**2>= 2.0369 S= 1.0123
 <L.S>=  0.00000000000    
 Annihilation of the first spin contaminant:
 S**2 before annihilation     2.0369,   after     2.0008
 DoSCS=F DFT=T ScalE2(SS,OS)=  1.000000  1.000000
 ExpMin= 1.05D-01 ExpMax= 7.82D+03 ExpMxC= 2.73D+02 IAcc=3 IRadAn=         5 AccDes= 0.00D+00
 HarFok:  IExCor=  205 AccDes= 0.00D+00 IRadAn=         5 IDoV=-2 UseB2=F ITyADJ=14
 ICtDFT= 12500011 ScaDFX=  1.000000  1.000000  1.000000  1.000000
 Defaulting to unpruned grid for atomic number  53.
 GSVD:  LWork=        -825 too small for GESVD, short by        3500 words or        3500 for optimal perf.
 Range of M.O.s used for correlation:    26   297
 NBasis=   297 NAE=   111 NBE=   109 NFC=    25 NFV=     0
 NROrb=    272 NOA=    86 NOB=    84 NVA=   186 NVB=   188

 **** Warning!!: The largest alpha MO coefficient is  0.14270687D+02


 **** Warning!!: The largest beta MO coefficient is  0.14780898D+02

 Ignoring spin specification with unrestricted ground state.
 Keep R1, R2, and R3 ints in memory in canonical form, NReq=2971174991.
 NEqPCM:  Using non-equilibrium solvation (IEInf=1, Eps=  78.3553, EpsInf=   1.7778)
 Inv3:  Mode=1 IEnd=    44213763.
 Iteration    1 A*A^-1 deviation from unit magnitude is 7.77D-15 for   3829.
 Iteration    1 A*A^-1 deviation from orthogonality  is 3.53D-15 for   3829   3676.
 Iteration    1 A^-1*A deviation from unit magnitude is 7.99D-15 for   3829.
 Iteration    1 A^-1*A deviation from orthogonality  is 2.53D-15 for   1168    155.
    12 initial guesses have been made.
 Convergence on wavefunction:    0.001000000000000
 Iteration     1 Dimension    12 NMult     0 NNew     12
 CISAX will form    12 AO SS matrices at one time.
 Defaulting to unpruned grid for atomic number  53.
 Defaulting to unpruned grid for atomic number  53.
 Defaulting to unpruned grid for atomic number  53.
 Defaulting to unpruned grid for atomic number  53.
 New state      2 was old state      4
 New state      3 was old state      2
 Iteration     2 Dimension    24 NMult    12 NNew     12
 Iteration     3 Dimension    27 NMult    24 NNew      3
 New state      1 was old state      2
 New state      2 was old state      1
 Iteration     4 Dimension    30 NMult    27 NNew      3
 Iteration     5 Dimension    33 NMult    30 NNew      3
 Iteration     6 Dimension    36 NMult    33 NNew      3
 Iteration     7 Dimension    38 NMult    36 NNew      2
 Iteration     8 Dimension    39 NMult    38 NNew      1
 Iteration     9 Dimension    40 NMult    39 NNew      1
 ***********************************************************************
 Excited states from <AA,BB:AA,BB> singles matrix:
 ***********************************************************************
 
 ExtSpn:  IState=     1 X2= 1.000 Y2= 0.000 X2-Y2-1= 4.44D-16
          S2Grnd=  2.037 Ra=  0.001 Rb=  0.016 T=  0.006 S2Ext=  0.023 S2=  2.060
 ExtSpn:  IState=     2 X2= 1.000 Y2= 0.000 X2-Y2-1= 2.22D-16
          S2Grnd=  2.037 Ra=  0.009 Rb=  0.025 T=  0.010 S2Ext=  0.044 S2=  2.081
 ExtSpn:  IState=     3 X2= 1.000 Y2= 0.000 X2-Y2-1= 0.00D+00
          S2Grnd=  2.037 Ra=  0.004 Rb=  0.020 T=  0.001 S2Ext=  0.025 S2=  2.062
 Ground to excited state transition densities written to RWF  633
 Ground to excited state transition electric dipole moments (Au):
       state          X           Y           Z        Dip. S.      Osc.
         1         0.0105      0.0028     -0.0036      0.0001      0.0000
         2         1.1929      0.3734     -0.0388      1.5641      0.0413
         3         0.4110      0.4203     -0.0215      0.3461      0.0148
 Ground to excited state transition velocity dipole moments (Au):
       state          X           Y           Z        Dip. S.      Osc.
         1         0.0003      0.0003     -0.0007      0.0000      0.0000
         2         0.0470      0.0062     -0.0015      0.0022      0.0379
         3        -0.0053      0.0129      0.0000      0.0002      0.0020
 Ground to excited state transition magnetic dipole moments (Au):
       state          X           Y           Z
         1        -0.2653      0.4179     -0.0088
         2        -0.0179     -0.0065     -0.7160
         3        -0.0077      0.0019      0.1159
 Ground to excited state transition velocity quadrupole moments (Au):
       state          XX          YY          ZZ          XY          XZ          YZ
         1         0.0043      0.0034     -0.0010      0.0057     -0.0117     -0.0037
         2         0.6757      0.2361     -0.0693      0.3957     -0.0200     -0.0102
         3        -0.0867      0.1044      0.0165      0.0458      0.0069      0.0085
 <0|del|b> * <b|rxdel|0> + <0|del|b> * <b|delr+rdel|0>
 Rotatory Strengths (R) in cgs (10**-40 erg-esu-cm/Gauss)
       state          XX          YY          ZZ    R(velocity)    E-M Angle
         1         1.2665     -0.8306      0.2575      0.2311       90.00
         2         5.0955      3.2921     -4.7040      1.2279       89.65
         3        -0.3350     -0.0142      1.0961      0.2490       90.00
 1/2[<0|r|b>*<b|rxdel|0> + (<0|rxdel|b>*<b|r|0>)*]
 Rotatory Strengths (R) in cgs (10**-40 erg-esu-cm/Gauss)
       state          XX          YY          ZZ     R(length)
         1         1.9711     -0.8134     -0.0224      0.3784
         2        15.0836      1.7239    -19.6502     -0.9475
         3         2.2312     -0.5630      1.7649      1.1444
  1/2[<0|del|b>*<b|r|0> + (<0|r|b>*<b|del|0>)*] (Au)
       state          X           Y           Z        Dip. S.   Osc.(frdel)
         1         0.0000      0.0000      0.0000     -0.0000     -0.0000
         2         0.0560      0.0023      0.0001     -0.0584     -0.0390
         3        -0.0022      0.0054     -0.0000     -0.0032     -0.0022

 Excitation energies and oscillator strengths:
 
 Excited state symmetry could not be determined.
 Excited State   1:  3.039-?Sym    0.8936 eV 1387.53 nm  f=0.0000  <S**2>=2.060
     89B ->110B       -0.11919
     98B ->110B        0.73865
     98B ->111B        0.29457
     98B ->122B       -0.14305
    104B ->110B        0.20238
    105B ->110B        0.29839
    106B ->110B        0.29006
 This state for optimization and/or second-order correction.
 Total Energy, E(CIS/TDA) =  -1244.89611927    
 Copying the excited state density for this state as the 1-particle RhoCI density.
 
 Excited state symmetry could not be determined.
 Excited State   2:  3.054-?Sym    1.0770 eV 1151.19 nm  f=0.0413  <S**2>=2.081
    111A ->119A       -0.10027
     97B ->110B       -0.12481
    108B ->110B        0.24670
    109B ->110B        0.92581
 
 Excited state symmetry could not be determined.
 Excited State   3:  3.041-?Sym    1.7501 eV  708.43 nm  f=0.0148  <S**2>=2.062
    107B ->110B       -0.17218
    108B ->110B        0.91251
    109B ->110B       -0.26529
    109B ->111B        0.14211
 SavETr:  write IOETrn=   770 NScale= 10 NData=  16 NLR=1 NState=    3 LETran=      64.

 **********************************************************************

            Population analysis using the SCF Density.

 **********************************************************************

 Alpha  occ. eigenvalues --  -19.74073 -19.71489 -19.70057 -19.68418 -19.66709
 Alpha  occ. eigenvalues --  -10.76274 -10.69578 -10.69537 -10.69474 -10.68954
 Alpha  occ. eigenvalues --  -10.68951 -10.68919 -10.68805 -10.67705 -10.65569
 Alpha  occ. eigenvalues --  -10.65543 -10.65459 -10.64464 -10.64073 -10.63839
 Alpha  occ. eigenvalues --  -10.63664 -10.63188 -10.62135 -10.61078 -10.60670
 Alpha  occ. eigenvalues --   -1.27395  -1.27122  -1.22765  -1.19915  -1.18804
 Alpha  occ. eigenvalues --   -1.08128  -1.02933  -1.02022  -1.01493  -0.99651
 Alpha  occ. eigenvalues --   -0.96091  -0.95364  -0.94369  -0.92908  -0.89866
 Alpha  occ. eigenvalues --   -0.88980  -0.88509  -0.86217  -0.81112  -0.80553
 Alpha  occ. eigenvalues --   -0.79054  -0.78140  -0.77836  -0.76686  -0.74337
 Alpha  occ. eigenvalues --   -0.74062  -0.73347  -0.70444  -0.69793  -0.69527
 Alpha  occ. eigenvalues --   -0.66396  -0.65676  -0.64805  -0.62970  -0.62772
 Alpha  occ. eigenvalues --   -0.59145  -0.58898  -0.58456  -0.57412  -0.56594
 Alpha  occ. eigenvalues --   -0.55606  -0.55334  -0.55029  -0.54360  -0.54047
 Alpha  occ. eigenvalues --   -0.54026  -0.53808  -0.52778  -0.51780  -0.51597
 Alpha  occ. eigenvalues --   -0.50005  -0.49126  -0.48493  -0.48195  -0.47354
 Alpha  occ. eigenvalues --   -0.46960  -0.46205  -0.45989  -0.45655  -0.44763
 Alpha  occ. eigenvalues --   -0.43294  -0.42841  -0.42620  -0.42322  -0.42010
 Alpha  occ. eigenvalues --   -0.41747  -0.41254  -0.40752  -0.40442  -0.39727
 Alpha  occ. eigenvalues --   -0.39494  -0.38511  -0.37817  -0.37529  -0.35160
 Alpha  occ. eigenvalues --   -0.34840  -0.34208  -0.34035  -0.33386  -0.32443
 Alpha  occ. eigenvalues --   -0.32347  -0.31709  -0.31212  -0.30254  -0.29978
 Alpha  occ. eigenvalues --   -0.21900
 Alpha virt. eigenvalues --   -0.05809  -0.04419  -0.03566  -0.03350  -0.02924
 Alpha virt. eigenvalues --   -0.02720  -0.01692  -0.01386  -0.00332  -0.00288
 Alpha virt. eigenvalues --    0.00244   0.02477   0.04003   0.07427   0.07684
 Alpha virt. eigenvalues --    0.09595   0.11345   0.12106   0.12580   0.14445
 Alpha virt. eigenvalues --    0.16376   0.16604   0.18060   0.18195   0.19336
 Alpha virt. eigenvalues --    0.20050   0.20574   0.21695   0.22239   0.22541
 Alpha virt. eigenvalues --    0.22985   0.23538   0.25244   0.25465   0.26172
 Alpha virt. eigenvalues --    0.26519   0.26847   0.27733   0.28484   0.28800
 Alpha virt. eigenvalues --    0.28993   0.29381   0.30055   0.31165   0.31364
 Alpha virt. eigenvalues --    0.31638   0.33073   0.33160   0.33712   0.34140
 Alpha virt. eigenvalues --    0.34370   0.34684   0.35365   0.35849   0.36812
 Alpha virt. eigenvalues --    0.37225   0.37546   0.38382   0.38934   0.39240
 Alpha virt. eigenvalues --    0.39671   0.39904   0.40294   0.40461   0.40802
 Alpha virt. eigenvalues --    0.41036   0.41122   0.42256   0.42343   0.42742
 Alpha virt. eigenvalues --    0.43287   0.43701   0.44263   0.44310   0.44560
 Alpha virt. eigenvalues --    0.44749   0.45099   0.45233   0.46063   0.46228
 Alpha virt. eigenvalues --    0.46433   0.47140   0.47802   0.48147   0.48649
 Alpha virt. eigenvalues --    0.49283   0.50464   0.51329   0.51899   0.53758
 Alpha virt. eigenvalues --    0.55095   0.55713   0.56310   0.56462   0.57216
 Alpha virt. eigenvalues --    0.57400   0.57950   0.58689   0.59975   0.60328
 Alpha virt. eigenvalues --    0.60537   0.62008   0.62083   0.62687   0.63349
 Alpha virt. eigenvalues --    0.63888   0.64710   0.65848   0.66846   0.67636
 Alpha virt. eigenvalues --    0.67963   0.69456   0.69679   0.71429   0.72209
 Alpha virt. eigenvalues --    0.72919   0.73519   0.73835   0.74950   0.75883
 Alpha virt. eigenvalues --    0.76846   0.77473   0.78546   0.78904   0.79838
 Alpha virt. eigenvalues --    0.80289   0.80542   0.82084   0.83058   0.83146
 Alpha virt. eigenvalues --    0.83600   0.84891   0.85290   0.87706   0.88306
 Alpha virt. eigenvalues --    0.88729   0.89772   0.90716   0.92011   0.93064
 Alpha virt. eigenvalues --    0.94379   0.97557   0.98039   0.99562   1.00124
 Alpha virt. eigenvalues --    1.01181   1.01774   1.04605   1.07056   1.10360
 Alpha virt. eigenvalues --    1.12629   1.16558   1.17981   1.18612   1.22102
 Alpha virt. eigenvalues --    1.23341   1.24741   1.26899   1.27966   1.29022
 Alpha virt. eigenvalues --    1.29400   1.31262   1.35470   1.39952   1.41257
 Alpha virt. eigenvalues --    1.45770   1.50920   1.53884   1.55495   1.57338
 Alpha virt. eigenvalues --    1.62245   1.66692   1.71681   1.82144   1.91015
 Alpha virt. eigenvalues --    1.95502   1.98242   2.04861   9.11943  10.91877
 Alpha virt. eigenvalues --   11.31263  11.42574  11.54135  11.73748  12.89144
 Alpha virt. eigenvalues --   13.33140
  Beta  occ. eigenvalues --  -19.73832 -19.71490 -19.69932 -19.68404 -19.65921
  Beta  occ. eigenvalues --  -10.76277 -10.69577 -10.69534 -10.69472 -10.68923
  Beta  occ. eigenvalues --  -10.68919 -10.68836 -10.68679 -10.67747 -10.65543
  Beta  occ. eigenvalues --  -10.65474 -10.65390 -10.64487 -10.64015 -10.63741
  Beta  occ. eigenvalues --  -10.63733 -10.63241 -10.61745 -10.61001 -10.60676
  Beta  occ. eigenvalues --   -1.27118  -1.26698  -1.22339  -1.18788  -1.17528
  Beta  occ. eigenvalues --   -1.08060  -1.02407  -1.01628  -1.01235  -0.99423
  Beta  occ. eigenvalues --   -0.95778  -0.95289  -0.93826  -0.92569  -0.89541
  Beta  occ. eigenvalues --   -0.88815  -0.87873  -0.86063  -0.80811  -0.79938
  Beta  occ. eigenvalues --   -0.78723  -0.77884  -0.77709  -0.76284  -0.74108
  Beta  occ. eigenvalues --   -0.73824  -0.73279  -0.70216  -0.69377  -0.69096
  Beta  occ. eigenvalues --   -0.66135  -0.65261  -0.64482  -0.62507  -0.62311
  Beta  occ. eigenvalues --   -0.58780  -0.58090  -0.57565  -0.57295  -0.55976
  Beta  occ. eigenvalues --   -0.55547  -0.55039  -0.54872  -0.53870  -0.53693
  Beta  occ. eigenvalues --   -0.53521  -0.52531  -0.51609  -0.50789  -0.49857
  Beta  occ. eigenvalues --   -0.49337  -0.48868  -0.48346  -0.47803  -0.47272
  Beta  occ. eigenvalues --   -0.45759  -0.45257  -0.45071  -0.44697  -0.43255
  Beta  occ. eigenvalues --   -0.42776  -0.42371  -0.42216  -0.42195  -0.41930
  Beta  occ. eigenvalues --   -0.41595  -0.41124  -0.40566  -0.39748  -0.39449
  Beta  occ. eigenvalues --   -0.38778  -0.36903  -0.36151  -0.35972  -0.34824
  Beta  occ. eigenvalues --   -0.34189  -0.34013  -0.33493  -0.33304  -0.32266
  Beta  occ. eigenvalues --   -0.31651  -0.30936  -0.30531  -0.28933
  Beta virt. eigenvalues --   -0.17477  -0.07278  -0.05702  -0.04328  -0.03506
  Beta virt. eigenvalues --   -0.03305  -0.02595  -0.01379  -0.00544  -0.00164
  Beta virt. eigenvalues --    0.00429   0.00456   0.01019   0.02684   0.06776
  Beta virt. eigenvalues --    0.07512   0.08282   0.09647   0.11492   0.12327
  Beta virt. eigenvalues --    0.12639   0.15630   0.16465   0.16811   0.18135
  Beta virt. eigenvalues --    0.19144   0.19521   0.20068   0.20697   0.21784
  Beta virt. eigenvalues --    0.22396   0.22645   0.23116   0.23730   0.25254
  Beta virt. eigenvalues --    0.25519   0.26243   0.26691   0.26896   0.27878
  Beta virt. eigenvalues --    0.28661   0.28874   0.29223   0.29592   0.30270
  Beta virt. eigenvalues --    0.31272   0.31568   0.31833   0.33163   0.33271
  Beta virt. eigenvalues --    0.33843   0.34233   0.34488   0.34830   0.35495
  Beta virt. eigenvalues --    0.35946   0.36949   0.37421   0.37541   0.38386
  Beta virt. eigenvalues --    0.39043   0.39341   0.39682   0.40117   0.40520
  Beta virt. eigenvalues --    0.40641   0.40922   0.41227   0.41402   0.42388
  Beta virt. eigenvalues --    0.42544   0.42950   0.43538   0.43953   0.44479
  Beta virt. eigenvalues --    0.44549   0.44755   0.44960   0.45304   0.45608
  Beta virt. eigenvalues --    0.46160   0.46448   0.46671   0.47490   0.47963
  Beta virt. eigenvalues --    0.48649   0.48837   0.49740   0.50682   0.51457
  Beta virt. eigenvalues --    0.52072   0.54374   0.55350   0.55957   0.56435
  Beta virt. eigenvalues --    0.56633   0.57478   0.57836   0.58252   0.58924
  Beta virt. eigenvalues --    0.60258   0.60674   0.60913   0.62248   0.62337
  Beta virt. eigenvalues --    0.62911   0.63751   0.64085   0.64992   0.66162
  Beta virt. eigenvalues --    0.67106   0.67803   0.68100   0.69516   0.69898
  Beta virt. eigenvalues --    0.71626   0.72485   0.73083   0.73626   0.73882
  Beta virt. eigenvalues --    0.74999   0.76068   0.77099   0.77700   0.78645
  Beta virt. eigenvalues --    0.79348   0.80016   0.80340   0.80609   0.82300
  Beta virt. eigenvalues --    0.83155   0.83678   0.84911   0.85384   0.86625
  Beta virt. eigenvalues --    0.87857   0.88406   0.88920   0.89942   0.90990
  Beta virt. eigenvalues --    0.92529   0.93330   0.94477   0.97695   0.98320
  Beta virt. eigenvalues --    0.99693   1.00249   1.01363   1.01838   1.05081
  Beta virt. eigenvalues --    1.07232   1.10436   1.12715   1.16782   1.18213
  Beta virt. eigenvalues --    1.18830   1.22327   1.23631   1.25080   1.27231
  Beta virt. eigenvalues --    1.28067   1.29295   1.29540   1.31733   1.35550
  Beta virt. eigenvalues --    1.40316   1.41402   1.46215   1.51135   1.54686
  Beta virt. eigenvalues --    1.55776   1.57539   1.62608   1.67052   1.72939
  Beta virt. eigenvalues --    1.82760   1.92104   1.96215   1.98485   2.05166
  Beta virt. eigenvalues --    9.11966  10.91843  11.31248  11.42539  11.54088
  Beta virt. eigenvalues --   11.73751  12.89143  13.33136
          Condensed to atoms (all electrons):
               1          2          3          4          5          6
     1  I    6.642437  -0.001484  -0.000343  -0.000000  -0.000000  -0.000000
     2  I   -0.001484   6.560490  -0.000000  -0.000383  -0.000000  -0.000000
     3  I   -0.000343  -0.000000   6.620341  -0.000000  -0.000002   0.000000
     4  I   -0.000000  -0.000383  -0.000000   6.659566  -0.000000   0.000000
     5  Cl  -0.000000  -0.000000  -0.000002  -0.000000   6.710020   0.000001
     6  Cl  -0.000000  -0.000000   0.000000   0.000000   0.000001   6.725828
     7  Cl  -0.000000  -0.000000  -0.000000   0.000000  -0.007857  -0.000030
     8  Cl   0.000000   0.000000   0.000000   0.000000  -0.000026  -0.007485
     9  O   -0.004669  -0.005274   0.000007   0.000007  -0.000012  -0.000000
    10  O   -0.005022   0.000000  -0.014874  -0.000000  -0.000000   0.000000
    11  O    0.000000  -0.003329  -0.000000  -0.001241  -0.000000   0.000000
    12  O    0.000000   0.000000   0.000000   0.000000   0.000000  -0.004326
    13  O   -0.000000   0.000000   0.000021  -0.000000  -0.000000  -0.000195
    14  C   -0.000707  -0.000662  -0.000384  -0.000236  -0.006676  -0.000337
    15  C   -0.009451   0.000679  -0.002534  -0.000016  -0.009326   0.000005
    16  C    0.000725  -0.010328  -0.000028  -0.005408  -0.009225   0.000010
    17  C   -0.000018  -0.000016  -0.000170  -0.000195  -0.178505  -0.001732
    18  C   -0.183587   0.004964  -0.000884   0.000009   0.000915  -0.000000
    19  C    0.004436  -0.186928   0.000004  -0.000934   0.001052   0.000000
    20  C   -0.000732   0.000014  -0.119368  -0.000001   0.000876  -0.000003
    21  C    0.000001   0.000002   0.000001   0.000016   0.002941  -0.198945
    22  C    0.000013  -0.001000  -0.000001  -0.134142   0.001298  -0.000006
    23  C    0.453888  -0.003113  -0.008968   0.000000   0.000132   0.000000
    24  C   -0.000001  -0.000001   0.000015   0.000013   0.624801  -0.002191
    25  C   -0.003393   0.467453  -0.000000  -0.002483   0.000107   0.000000
    26  C   -0.001810  -0.000001   0.442317  -0.000000   0.000080   0.000000
    27  C   -0.146753  -0.000076  -0.204188   0.000000   0.000002   0.000000
    28  C    0.000000   0.001192  -0.000000   0.420086   0.000078   0.000000
    29  C    0.000000   0.000000  -0.000003  -0.000003  -0.001772   0.599067
    30  C   -0.000070  -0.145010  -0.000000  -0.165833   0.000004   0.000000
    31  C   -0.000000  -0.000000  -0.000004   0.000001  -0.203367  -0.004722
    32  C    0.000000   0.000000   0.000001   0.000000  -0.005733  -0.192800
    33  C   -0.000001  -0.000002   0.000004  -0.000006  -0.000081   0.007066
    34  H    0.000010  -0.000000  -0.000240  -0.000000  -0.000463  -0.000000
    35  H   -0.000000   0.000011  -0.000000  -0.001948  -0.000392   0.000002
    36  H    0.000398   0.000000   0.027477  -0.000000  -0.000000  -0.000000
    37  H    0.000000   0.000000  -0.000000   0.000038   0.000000   0.000371
               7          8          9         10         11         12
     1  I   -0.000000   0.000000  -0.004669  -0.005022   0.000000   0.000000
     2  I   -0.000000   0.000000  -0.005274   0.000000  -0.003329   0.000000
     3  I   -0.000000   0.000000   0.000007  -0.014874  -0.000000   0.000000
     4  I    0.000000   0.000000   0.000007  -0.000000  -0.001241   0.000000
     5  Cl  -0.007857  -0.000026  -0.000012  -0.000000  -0.000000   0.000000
     6  Cl  -0.000030  -0.007485  -0.000000   0.000000   0.000000  -0.004326
     7  Cl   6.713272  -0.008284   0.000000   0.000000   0.000000  -0.000000
     8  Cl  -0.008284   6.711083  -0.000000   0.000000   0.000000   0.000002
     9  O    0.000000  -0.000000   8.001401  -0.000008  -0.000032   0.000000
    10  O    0.000000   0.000000  -0.000008   7.982512  -0.000000   0.000000
    11  O    0.000000   0.000000  -0.000032  -0.000000   7.806023   0.000000
    12  O   -0.000000   0.000002   0.000000   0.000000   0.000000   8.094059
    13  O   -0.000000   0.000000  -0.000006   0.000000   0.000000  -0.081384
    14  C   -0.000265  -0.000025  -0.031549   0.000032   0.000004   0.003118
    15  C   -0.000015  -0.000001  -0.013164  -0.000943   0.000001   0.000456
    16  C   -0.000012  -0.000000  -0.021559  -0.000002  -0.001790   0.000521
    17  C   -0.007344  -0.003298  -0.000265  -0.000000  -0.000002   0.002772
    18  C   -0.000000   0.000000   0.300245  -0.000924  -0.000022   0.000088
    19  C   -0.000000   0.000000   0.285260  -0.000007  -0.007288   0.000069
    20  C    0.000012   0.000000   0.004080  -0.001626   0.000000  -0.000178
    21  C   -0.002309  -0.005347   0.000060  -0.000000   0.000000   0.004101
    22  C    0.000009  -0.000000   0.004518  -0.000000  -0.002240   0.001262
    23  C   -0.000000  -0.000000  -0.082944  -0.094871  -0.000000   0.000001
    24  C   -0.199879  -0.005217  -0.000084   0.000000   0.000000  -0.000708
    25  C   -0.000000  -0.000000  -0.069350  -0.000000  -0.123712   0.000010
    26  C    0.000001  -0.000000   0.000022  -0.093365  -0.000000  -0.000007
    27  C    0.000000  -0.000000   0.004116   0.462518  -0.000000  -0.000000
    28  C    0.000001  -0.000000  -0.000064  -0.000000  -0.128508  -0.000059
    29  C   -0.004959  -0.193848   0.000001  -0.000000  -0.000000  -0.008936
    30  C    0.000000  -0.000000   0.000983  -0.000000   0.741734  -0.000004
    31  C    0.616594  -0.193271  -0.000001   0.000000   0.000000  -0.000083
    32  C   -0.188122   0.612382   0.000000  -0.000000  -0.000000  -0.001254
    33  C   -0.000001  -0.000036  -0.000097  -0.000000   0.000000   0.211194
    34  H   -0.000001  -0.000000  -0.000066  -0.000068  -0.000000   0.000002
    35  H   -0.000001  -0.000000  -0.000061   0.000000  -0.000056  -0.000347
    36  H   -0.000000  -0.000000   0.000000   0.256497   0.000000   0.000000
    37  H   -0.000000  -0.000001  -0.000000   0.000000  -0.000000   0.255883
              13         14         15         16         17         18
     1  I   -0.000000  -0.000707  -0.009451   0.000725  -0.000018  -0.183587
     2  I    0.000000  -0.000662   0.000679  -0.010328  -0.000016   0.004964
     3  I    0.000021  -0.000384  -0.002534  -0.000028  -0.000170  -0.000884
     4  I   -0.000000  -0.000236  -0.000016  -0.005408  -0.000195   0.000009
     5  Cl  -0.000000  -0.006676  -0.009326  -0.009225  -0.178505   0.000915
     6  Cl  -0.000195  -0.000337   0.000005   0.000010  -0.001732  -0.000000
     7  Cl  -0.000000  -0.000265  -0.000015  -0.000012  -0.007344  -0.000000
     8  Cl   0.000000  -0.000025  -0.000001  -0.000000  -0.003298   0.000000
     9  O   -0.000006  -0.031549  -0.013164  -0.021559  -0.000265   0.300245
    10  O    0.000000   0.000032  -0.000943  -0.000002  -0.000000  -0.000924
    11  O    0.000000   0.000004   0.000001  -0.001790  -0.000002  -0.000022
    12  O   -0.081384   0.003118   0.000456   0.000521   0.002772   0.000088
    13  O    7.808166   0.006268  -0.001789   0.004786   0.010295   0.001058
    14  C    0.006268   5.915594   0.254861   0.148169   0.128219  -0.095934
    15  C   -0.001789   0.254861   5.390468  -0.019531  -0.093127   0.324829
    16  C    0.004786   0.148169  -0.019531   5.446137  -0.089383   0.012207
    17  C    0.010295   0.128219  -0.093127  -0.089383   6.627059  -0.032022
    18  C    0.001058  -0.095934   0.324829   0.012207  -0.032022   5.571105
    19  C    0.000216  -0.107716   0.000728   0.352932  -0.026118  -0.061796
    20  C   -0.000540  -0.024974   0.374401  -0.011756  -0.005389  -0.095812
    21  C   -0.027316  -0.116687  -0.014511  -0.020311   0.121868   0.000554
    22  C   -0.000255  -0.019635  -0.005729   0.368922  -0.023624   0.011333
    23  C    0.000200  -0.013953  -0.155212   0.018950  -0.003693   0.086570
    24  C   -0.000088  -0.154478  -0.018340  -0.012583  -0.038450   0.000786
    25  C    0.000004  -0.016576   0.017213  -0.105360  -0.002797  -0.026594
    26  C   -0.000740  -0.009441  -0.081800  -0.000770  -0.000147  -0.132962
    27  C   -0.000060  -0.000077  -0.163282   0.000317   0.000170  -0.064936
    28  C   -0.000011   0.003978  -0.000341  -0.069171  -0.000343   0.000870
    29  C   -0.000416   0.010194   0.003083   0.003876  -0.080840   0.000138
    30  C   -0.000001  -0.000306   0.000712  -0.145395  -0.000398  -0.001499
    31  C    0.000048   0.003520   0.001647   0.002648  -0.240150   0.000120
    32  C    0.000279  -0.002789  -0.000233  -0.000162  -0.346532  -0.000006
    33  C    0.554348  -0.038302  -0.006026  -0.002840  -0.021423  -0.000473
    34  H   -0.000657  -0.005486  -0.030406   0.000773   0.007737   0.000541
    35  H    0.000033  -0.002911   0.000681  -0.035174   0.006637  -0.000039
    36  H    0.000000   0.000005   0.000179  -0.000000   0.000000   0.000003
    37  H    0.002066   0.000413   0.000038  -0.000152   0.004872   0.000001
              19         20         21         22         23         24
     1  I    0.004436  -0.000732   0.000001   0.000013   0.453888  -0.000001
     2  I   -0.186928   0.000014   0.000002  -0.001000  -0.003113  -0.000001
     3  I    0.000004  -0.119368   0.000001  -0.000001  -0.008968   0.000015
     4  I   -0.000934  -0.000001   0.000016  -0.134142   0.000000   0.000013
     5  Cl   0.001052   0.000876   0.002941   0.001298   0.000132   0.624801
     6  Cl   0.000000  -0.000003  -0.198945  -0.000006   0.000000  -0.002191
     7  Cl  -0.000000   0.000012  -0.002309   0.000009  -0.000000  -0.199879
     8  Cl   0.000000   0.000000  -0.005347  -0.000000  -0.000000  -0.005217
     9  O    0.285260   0.004080   0.000060   0.004518  -0.082944  -0.000084
    10  O   -0.000007  -0.001626  -0.000000  -0.000000  -0.094871   0.000000
    11  O   -0.007288   0.000000   0.000000  -0.002240  -0.000000   0.000000
    12  O    0.000069  -0.000178   0.004101   0.001262   0.000001  -0.000708
    13  O    0.000216  -0.000540  -0.027316  -0.000255   0.000200  -0.000088
    14  C   -0.107716  -0.024974  -0.116687  -0.019635  -0.013953  -0.154478
    15  C    0.000728   0.374401  -0.014511  -0.005729  -0.155212  -0.018340
    16  C    0.352932  -0.011756  -0.020311   0.368922   0.018950  -0.012583
    17  C   -0.026118  -0.005389   0.121868  -0.023624  -0.003693  -0.038450
    18  C   -0.061796  -0.095812   0.000554   0.011333   0.086570   0.000786
    19  C    5.550099   0.010655   0.001964  -0.098303  -0.030256   0.000130
    20  C    0.010655   5.630966   0.001863  -0.000890  -0.112210  -0.007311
    21  C    0.001964   0.001863   6.613005   0.000207  -0.000027  -0.092227
    22  C   -0.098303  -0.000890   0.000207   5.607533   0.001088  -0.005757
    23  C   -0.030256  -0.112210  -0.000027   0.001088   6.889710   0.000318
    24  C    0.000130  -0.007311  -0.092227  -0.005757   0.000318   7.037735
    25  C    0.012143   0.000933   0.000081  -0.083510  -0.011974   0.000179
    26  C    0.000798   0.372201   0.000162  -0.000098  -0.291789  -0.002350
    27  C   -0.000036  -0.108237  -0.000017   0.000011   0.120877  -0.000139
    28  C   -0.094697  -0.000082  -0.000151   0.322400   0.000025  -0.001924
    29  C    0.000222  -0.000689  -0.086721  -0.001045   0.000003  -0.336587
    30  C   -0.051737   0.000019  -0.000086  -0.074766  -0.000543  -0.000049
    31  C    0.000056  -0.003407  -0.309412  -0.003184   0.000012  -0.217519
    32  C   -0.000009   0.000220  -0.207910   0.000361   0.000000  -0.256145
    33  C   -0.001297  -0.000417   0.122223   0.000340   0.000085   0.018692
    34  H   -0.000104   0.328330  -0.002532   0.000071   0.000062  -0.000622
    35  H    0.000511   0.000059  -0.003947   0.335473  -0.000000  -0.000250
    36  H    0.000000   0.000475   0.000000   0.000000   0.012134   0.000000
    37  H   -0.000006   0.000002   0.022825  -0.000048   0.000000   0.000240
              25         26         27         28         29         30
     1  I   -0.003393  -0.001810  -0.146753   0.000000   0.000000  -0.000070
     2  I    0.467453  -0.000001  -0.000076   0.001192   0.000000  -0.145010
     3  I   -0.000000   0.442317  -0.204188  -0.000000  -0.000003  -0.000000
     4  I   -0.002483  -0.000000   0.000000   0.420086  -0.000003  -0.165833
     5  Cl   0.000107   0.000080   0.000002   0.000078  -0.001772   0.000004
     6  Cl   0.000000   0.000000   0.000000   0.000000   0.599067   0.000000
     7  Cl  -0.000000   0.000001   0.000000   0.000001  -0.004959   0.000000
     8  Cl  -0.000000  -0.000000  -0.000000  -0.000000  -0.193848  -0.000000
     9  O   -0.069350   0.000022   0.004116  -0.000064   0.000001   0.000983
    10  O   -0.000000  -0.093365   0.462518  -0.000000  -0.000000  -0.000000
    11  O   -0.123712  -0.000000  -0.000000  -0.128508  -0.000000   0.741734
    12  O    0.000010  -0.000007  -0.000000  -0.000059  -0.008936  -0.000004
    13  O    0.000004  -0.000740  -0.000060  -0.000011  -0.000416  -0.000001
    14  C   -0.016576  -0.009441  -0.000077   0.003978   0.010194  -0.000306
    15  C    0.017213  -0.081800  -0.163282  -0.000341   0.003083   0.000712
    16  C   -0.105360  -0.000770   0.000317  -0.069171   0.003876  -0.145395
    17  C   -0.002797  -0.000147   0.000170  -0.000343  -0.080840  -0.000398
    18  C   -0.026594  -0.132962  -0.064936   0.000870   0.000138  -0.001499
    19  C    0.012143   0.000798  -0.000036  -0.094697   0.000222  -0.051737
    20  C    0.000933   0.372201  -0.108237  -0.000082  -0.000689   0.000019
    21  C    0.000081   0.000162  -0.000017  -0.000151  -0.086721  -0.000086
    22  C   -0.083510  -0.000098   0.000011   0.322400  -0.001045  -0.074766
    23  C   -0.011974  -0.291789   0.120877   0.000025   0.000003  -0.000543
    24  C    0.000179  -0.002350  -0.000139  -0.001924  -0.336587  -0.000049
    25  C    7.171090   0.000033  -0.000546  -0.373747   0.000005  -0.088216
    26  C    0.000033   6.691345  -0.089148  -0.000002  -0.000117  -0.000001
    27  C   -0.000546  -0.089148   5.537716  -0.000000  -0.000003  -0.000008
    28  C   -0.373747  -0.000002  -0.000000   6.724059  -0.000215  -0.101898
    29  C    0.000005  -0.000117  -0.000003  -0.000215   6.936390  -0.000007
    30  C   -0.088216  -0.000001  -0.000008  -0.101898  -0.000007   5.587444
    31  C    0.000008  -0.000388  -0.000010  -0.000287  -0.261675  -0.000005
    32  C   -0.000000   0.000008  -0.000000   0.000009  -0.219320   0.000000
    33  C   -0.000070  -0.000315  -0.000011   0.000030  -0.049986   0.000016
    34  H   -0.000001  -0.015026   0.003489   0.000002   0.000065  -0.000000
    35  H   -0.000130   0.000001  -0.000000  -0.018502   0.000027   0.003152
    36  H    0.000000  -0.005000  -0.034799   0.000000   0.000000  -0.000000
    37  H    0.000000   0.000000  -0.000000   0.000049  -0.011812   0.000002
              31         32         33         34         35         36
     1  I   -0.000000   0.000000  -0.000001   0.000010  -0.000000   0.000398
     2  I   -0.000000   0.000000  -0.000002  -0.000000   0.000011   0.000000
     3  I   -0.000004   0.000001   0.000004  -0.000240  -0.000000   0.027477
     4  I    0.000001   0.000000  -0.000006  -0.000000  -0.001948  -0.000000
     5  Cl  -0.203367  -0.005733  -0.000081  -0.000463  -0.000392  -0.000000
     6  Cl  -0.004722  -0.192800   0.007066  -0.000000   0.000002  -0.000000
     7  Cl   0.616594  -0.188122  -0.000001  -0.000001  -0.000001  -0.000000
     8  Cl  -0.193271   0.612382  -0.000036  -0.000000  -0.000000  -0.000000
     9  O   -0.000001   0.000000  -0.000097  -0.000066  -0.000061   0.000000
    10  O    0.000000  -0.000000  -0.000000  -0.000068   0.000000   0.256497
    11  O    0.000000  -0.000000   0.000000  -0.000000  -0.000056   0.000000
    12  O   -0.000083  -0.001254   0.211194   0.000002  -0.000347   0.000000
    13  O    0.000048   0.000279   0.554348  -0.000657   0.000033   0.000000
    14  C    0.003520  -0.002789  -0.038302  -0.005486  -0.002911   0.000005
    15  C    0.001647  -0.000233  -0.006026  -0.030406   0.000681   0.000179
    16  C    0.002648  -0.000162  -0.002840   0.000773  -0.035174  -0.000000
    17  C   -0.240150  -0.346532  -0.021423   0.007737   0.006637   0.000000
    18  C    0.000120  -0.000006  -0.000473   0.000541  -0.000039   0.000003
    19  C    0.000056  -0.000009  -0.001297  -0.000104   0.000511   0.000000
    20  C   -0.003407   0.000220  -0.000417   0.328330   0.000059   0.000475
    21  C   -0.309412  -0.207910   0.122223  -0.002532  -0.003947   0.000000
    22  C   -0.003184   0.000361   0.000340   0.000071   0.335473   0.000000
    23  C    0.000012   0.000000   0.000085   0.000062  -0.000000   0.012134
    24  C   -0.217519  -0.256145   0.018692  -0.000622  -0.000250   0.000000
    25  C    0.000008  -0.000000  -0.000070  -0.000001  -0.000130   0.000000
    26  C   -0.000388   0.000008  -0.000315  -0.015026   0.000001  -0.005000
    27  C   -0.000010  -0.000000  -0.000011   0.003489  -0.000000  -0.034799
    28  C   -0.000287   0.000009   0.000030   0.000002  -0.018502   0.000000
    29  C   -0.261675  -0.219320  -0.049986   0.000065   0.000027   0.000000
    30  C   -0.000005   0.000000   0.000016  -0.000000   0.003152  -0.000000
    31  C    7.048258  -0.128716   0.002339   0.000622   0.000831   0.000000
    32  C   -0.128716   7.100915   0.000020  -0.000184  -0.000215  -0.000000
    33  C    0.002339   0.000020   4.997322  -0.000201   0.000107   0.000000
    34  H    0.000622  -0.000184  -0.000201   0.406760   0.000001  -0.000008
    35  H    0.000831  -0.000215   0.000107   0.000001   0.410965   0.000000
    36  H    0.000000  -0.000000   0.000000  -0.000008   0.000000   0.322240
    37  H   -0.000050  -0.000992  -0.031023   0.000000   0.000203   0.000000
              37
     1  I    0.000000
     2  I    0.000000
     3  I   -0.000000
     4  I    0.000038
     5  Cl   0.000000
     6  Cl   0.000371
     7  Cl  -0.000000
     8  Cl  -0.000001
     9  O   -0.000000
    10  O    0.000000
    11  O   -0.000000
    12  O    0.255883
    13  O    0.002066
    14  C    0.000413
    15  C    0.000038
    16  C   -0.000152
    17  C    0.004872
    18  C    0.000001
    19  C   -0.000006
    20  C    0.000002
    21  C    0.022825
    22  C   -0.000048
    23  C    0.000000
    24  C    0.000240
    25  C    0.000000
    26  C    0.000000
    27  C   -0.000000
    28  C    0.000049
    29  C   -0.011812
    30  C    0.000002
    31  C   -0.000050
    32  C   -0.000992
    33  C   -0.031023
    34  H    0.000000
    35  H    0.000203
    36  H    0.000000
    37  H    0.292551
          Atomic-Atomic Spin Densities.
               1          2          3          4          5          6
     1  I   -0.011672  -0.000059  -0.000001  -0.000000  -0.000000  -0.000000
     2  I   -0.000059   0.118630  -0.000000   0.000026  -0.000000  -0.000000
     3  I   -0.000001  -0.000000   0.003009  -0.000000   0.000000   0.000000
     4  I   -0.000000   0.000026  -0.000000   0.044139  -0.000001   0.000000
     5  Cl  -0.000000  -0.000000   0.000000  -0.000001   0.007406   0.000000
     6  Cl  -0.000000  -0.000000   0.000000   0.000000   0.000000   0.003255
     7  Cl  -0.000000  -0.000000   0.000000   0.000000  -0.000550  -0.000001
     8  Cl   0.000000   0.000000  -0.000000  -0.000000   0.000000  -0.000021
     9  O    0.000043   0.001186  -0.000000  -0.000000  -0.000015  -0.000000
    10  O   -0.000188  -0.000000   0.000519  -0.000000   0.000000   0.000000
    11  O   -0.000000   0.003879  -0.000000   0.003061  -0.000000   0.000000
    12  O   -0.000000  -0.000000   0.000000  -0.000001   0.000000   0.000033
    13  O   -0.000000  -0.000000  -0.000002  -0.000000  -0.000000  -0.000013
    14  C   -0.000008   0.000039  -0.000060  -0.000021  -0.008519  -0.000104
    15  C   -0.000098  -0.000051   0.000034  -0.000001   0.001345   0.000003
    16  C   -0.000006   0.000616  -0.000000   0.000507   0.000570   0.000003
    17  C   -0.000000  -0.000000   0.000008  -0.000004   0.000772  -0.000237
    18  C   -0.001599  -0.000151   0.000047   0.000000   0.000139   0.000000
    19  C   -0.000001   0.003326   0.000000   0.000065   0.000111  -0.000000
    20  C    0.000002  -0.000000   0.001086  -0.000000   0.000479   0.000006
    21  C   -0.000000   0.000000  -0.000001   0.000004  -0.000032   0.000372
    22  C   -0.000001   0.000055   0.000000   0.004437   0.000407   0.000008
    23  C    0.012921   0.000019  -0.000110   0.000000  -0.000002  -0.000000
    24  C   -0.000000   0.000000   0.000000   0.000004  -0.001136  -0.000008
    25  C    0.000021  -0.054820   0.000000  -0.000854   0.000006  -0.000000
    26  C   -0.000141   0.000000   0.002052   0.000000  -0.000027  -0.000000
    27  C   -0.001162   0.000002  -0.002999   0.000000  -0.000007  -0.000000
    28  C    0.000000  -0.001068   0.000000  -0.028739   0.000004  -0.000000
    29  C   -0.000000   0.000000  -0.000001  -0.000000   0.000018  -0.002957
    30  C    0.000000   0.001653  -0.000000  -0.001093  -0.000003  -0.000000
    31  C   -0.000000   0.000000  -0.000001  -0.000000   0.001355  -0.000002
    32  C   -0.000000   0.000000  -0.000000   0.000000   0.000005   0.001262
    33  C   -0.000000  -0.000000   0.000002  -0.000000  -0.000004  -0.000311
    34  H   -0.000000  -0.000000   0.000077  -0.000000  -0.000013  -0.000000
    35  H   -0.000000  -0.000000  -0.000000   0.000052  -0.000018  -0.000000
    36  H    0.000004   0.000000   0.000165   0.000000  -0.000000  -0.000000
    37  H   -0.000000  -0.000000   0.000000   0.000002  -0.000000   0.000031
               7          8          9         10         11         12
     1  I   -0.000000   0.000000   0.000043  -0.000188  -0.000000  -0.000000
     2  I   -0.000000   0.000000   0.001186  -0.000000   0.003879  -0.000000
     3  I    0.000000  -0.000000  -0.000000   0.000519  -0.000000   0.000000
     4  I    0.000000  -0.000000  -0.000000  -0.000000   0.003061  -0.000001
     5  Cl  -0.000550   0.000000  -0.000015   0.000000  -0.000000   0.000000
     6  Cl  -0.000001  -0.000021  -0.000000   0.000000   0.000000   0.000033
     7  Cl   0.003799  -0.000011  -0.000000   0.000000   0.000000  -0.000000
     8  Cl  -0.000011   0.000096  -0.000000   0.000000   0.000000  -0.000000
     9  O   -0.000000  -0.000000   0.149149  -0.000004   0.000000  -0.000000
    10  O    0.000000   0.000000  -0.000004   0.078362   0.000000   0.000000
    11  O    0.000000   0.000000   0.000000   0.000000   0.551925  -0.000000
    12  O   -0.000000  -0.000000  -0.000000   0.000000  -0.000000  -0.000952
    13  O   -0.000000   0.000000  -0.000007   0.000000   0.000000   0.000085
    14  C   -0.000127   0.000001   0.010441  -0.000007  -0.000008  -0.000144
    15  C    0.000006   0.000000  -0.003626   0.000191  -0.000000   0.000011
    16  C    0.000006   0.000000  -0.002022   0.000000   0.000421  -0.000041
    17  C   -0.000085   0.000009   0.000041   0.000000  -0.000000   0.000001
    18  C    0.000000   0.000000  -0.048256   0.000251   0.000001  -0.000000
    19  C    0.000000   0.000000  -0.024953   0.000000   0.000617  -0.000003
    20  C    0.000008  -0.000000  -0.000578   0.000501   0.000000   0.000001
    21  C   -0.000115  -0.000030  -0.000003  -0.000000   0.000000   0.000099
    22  C    0.000005  -0.000000  -0.000645   0.000000   0.000713  -0.000011
    23  C    0.000000   0.000000   0.000777   0.002745   0.000000   0.000000
    24  C   -0.000575  -0.000010  -0.000022   0.000000   0.000000   0.000003
[...]
    26  C   -0.000000  -0.000000   0.000131  -0.001529   0.000000  -0.000000
    27  C   -0.000000  -0.000000   0.000553  -0.040372  -0.000000  -0.000000
    28  C   -0.000000  -0.000000   0.000093  -0.000000  -0.011348   0.000017
    29  C    0.000127   0.000012  -0.000000  -0.000000   0.000000  -0.000221
    30  C   -0.000000  -0.000000   0.000403  -0.000000  -0.081482   0.000000
    31  C   -0.002424   0.000015  -0.000000   0.000000   0.000000  -0.000001
    32  C    0.001146  -0.000067  -0.000000   0.000000   0.000000  -0.000000
    33  C    0.000000   0.000001  -0.000029   0.000000   0.000000   0.000768
    34  H   -0.000000   0.000000  -0.000000   0.000000  -0.000000   0.000000
    35  H    0.000000   0.000000  -0.000000   0.000000   0.000001   0.000001
    36  H    0.000000   0.000000  -0.000000  -0.000476   0.000000  -0.000000
    37  H   -0.000000  -0.000000  -0.000000   0.000000   0.000000   0.000037
              13         14         15         16         17         18
     1  I   -0.000000  -0.000008  -0.000098  -0.000006  -0.000000  -0.001599
     2  I   -0.000000   0.000039  -0.000051   0.000616  -0.000000  -0.000151
     3  I   -0.000002  -0.000060   0.000034  -0.000000   0.000008   0.000047
     4  I   -0.000000  -0.000021  -0.000001   0.000507  -0.000004   0.000000
     5  Cl  -0.000000  -0.008519   0.001345   0.000570   0.000772   0.000139
     6  Cl  -0.000013  -0.000104   0.000003   0.000003  -0.000237   0.000000
     7  Cl  -0.000000  -0.000127   0.000006   0.000006  -0.000085   0.000000
     8  Cl   0.000000   0.000001   0.000000   0.000000   0.000009   0.000000
     9  O   -0.000007   0.010441  -0.003626  -0.002022   0.000041  -0.048256
    10  O    0.000000  -0.000007   0.000191   0.000000   0.000000   0.000251
    11  O    0.000000  -0.000008  -0.000000   0.000421  -0.000000   0.000001
    12  O    0.000085  -0.000144   0.000011  -0.000041   0.000001  -0.000000
    13  O    0.007342  -0.003684   0.000799   0.000346  -0.000003   0.000111
    14  C   -0.003684   0.854862  -0.083050  -0.076834   0.022262  -0.023811
    15  C    0.000799  -0.083050  -0.025020  -0.001807   0.004598   0.033767
    16  C    0.000346  -0.076834  -0.001807   0.148040   0.000731   0.004239
    17  C   -0.000003   0.022262   0.004598   0.000731  -0.060339   0.000095
    18  C    0.000111  -0.023811   0.033767   0.004239   0.000095   0.155089
    19  C    0.000041  -0.023461   0.003050   0.029692  -0.000061   0.009346
    20  C    0.000042  -0.029695   0.038565   0.001507  -0.001180   0.005899
    21  C    0.000278  -0.023656   0.000072   0.001494   0.001300   0.000016
    22  C    0.000062  -0.027974   0.000828   0.045415  -0.003028   0.000155
    23  C    0.000001  -0.000357   0.003977  -0.000268  -0.000008   0.014922
    24  C    0.000004  -0.032420   0.000519   0.002328  -0.002534   0.000191
    25  C   -0.000001   0.000468   0.000269  -0.014489   0.000039   0.000800
    26  C   -0.000021   0.001998  -0.004482  -0.000005  -0.000283  -0.002515
    27  C   -0.000005   0.001473  -0.007263  -0.000076   0.000004  -0.007304
    28  C   -0.000002   0.002430   0.000011  -0.018826   0.000211  -0.000038
    29  C   -0.000021  -0.000213  -0.000052   0.000144   0.004573   0.000007
    30  C   -0.000000   0.000873  -0.000041  -0.004220   0.000030  -0.000053
    31  C   -0.000001  -0.000993  -0.000341  -0.000067   0.005937  -0.000004
    32  C    0.000000  -0.000720  -0.000001   0.000042   0.001709   0.000001
    33  C   -0.000282  -0.005093   0.001248   0.000840  -0.000077   0.000148
    34  H    0.000017   0.000432   0.000252  -0.000012   0.000223  -0.000254
    35  H   -0.000000   0.000254  -0.000002   0.000083   0.000333  -0.000000
    36  H   -0.000000  -0.000000   0.000003   0.000000  -0.000000  -0.000014
    37  H    0.000000  -0.000134   0.000002   0.000041  -0.000049   0.000000
              19         20         21         22         23         24
     1  I   -0.000001   0.000002  -0.000000  -0.000001   0.012921  -0.000000
     2  I    0.003326  -0.000000   0.000000   0.000055   0.000019   0.000000
     3  I    0.000000   0.001086  -0.000001   0.000000  -0.000110   0.000000
     4  I    0.000065  -0.000000   0.000004   0.004437   0.000000   0.000004
     5  Cl   0.000111   0.000479  -0.000032   0.000407  -0.000002  -0.001136
     6  Cl  -0.000000   0.000006   0.000372   0.000008  -0.000000  -0.000008
     7  Cl   0.000000   0.000008  -0.000115   0.000005   0.000000  -0.000575
     8  Cl   0.000000  -0.000000  -0.000030  -0.000000   0.000000  -0.000010
     9  O   -0.024953  -0.000578  -0.000003  -0.000645   0.000777  -0.000022
    10  O    0.000000   0.000501  -0.000000   0.000000   0.002745   0.000000
    11  O    0.000617   0.000000   0.000000   0.000713   0.000000   0.000000
    12  O   -0.000003   0.000001   0.000099  -0.000011   0.000000   0.000003
    13  O    0.000041   0.000042   0.000278   0.000062   0.000001   0.000004
    14  C   -0.023461  -0.029695  -0.023656  -0.027974  -0.000357  -0.032420
    15  C    0.003050   0.038565   0.000072   0.000828   0.003977   0.000519
    16  C    0.029692   0.001507   0.001494   0.045415  -0.000268   0.002328
    17  C   -0.000061  -0.001180   0.001300  -0.003028  -0.000008  -0.002534
    18  C    0.009346   0.005899   0.000016   0.000155   0.014922   0.000191
    19  C    0.015401   0.000170   0.000016   0.012329   0.000291   0.000302
    20  C    0.000170   0.146267   0.001073   0.000117   0.000446   0.002168
    21  C    0.000016   0.001073   0.032627   0.002159   0.000009  -0.009785
    22  C    0.012329   0.000117   0.002159   0.013818   0.000005   0.002036
    23  C    0.000291   0.000446   0.000009   0.000005  -0.130415   0.000003
    24  C    0.000302   0.002168  -0.009785   0.002036   0.000003   0.029869
    25  C    0.001465  -0.000020  -0.000008  -0.006686   0.000094  -0.000005
    26  C   -0.000047  -0.025554   0.000001  -0.000002   0.000975   0.000002
    27  C   -0.000074  -0.011273  -0.000005  -0.000002  -0.000185  -0.000015
    28  C   -0.008423  -0.000004  -0.000053  -0.043753  -0.000000  -0.000150
    29  C    0.000010  -0.000127  -0.005275  -0.000018   0.000000   0.003733
    30  C   -0.004509  -0.000001  -0.000007  -0.003438   0.000007  -0.000016
    31  C    0.000003   0.000220   0.001783   0.000222   0.000000   0.007548
    32  C    0.000000   0.000045   0.004990   0.000074   0.000000   0.004284
    33  C    0.000085   0.000488   0.001365   0.000287  -0.000005  -0.000420
    34  H    0.000007  -0.003666   0.000033  -0.000005   0.000020  -0.000157
    35  H   -0.000217  -0.000002  -0.000210   0.000055  -0.000000  -0.000060
    36  H   -0.000000   0.000025   0.000000   0.000000  -0.000185  -0.000000
    37  H    0.000001   0.000001   0.000031   0.000089   0.000000  -0.000008
              25         26         27         28         29         30
     1  I    0.000021  -0.000141  -0.001162   0.000000  -0.000000   0.000000
     2  I   -0.054820   0.000000   0.000002  -0.001068   0.000000   0.001653
     3  I    0.000000   0.002052  -0.002999   0.000000  -0.000001  -0.000000
     4  I   -0.000854   0.000000   0.000000  -0.028739  -0.000000  -0.001093
     5  Cl   0.000006  -0.000027  -0.000007   0.000004   0.000018  -0.000003
     6  Cl  -0.000000  -0.000000  -0.000000  -0.000000  -0.002957  -0.000000
     7  Cl  -0.000000  -0.000000  -0.000000  -0.000000   0.000127  -0.000000
     8  Cl   0.000000  -0.000000  -0.000000  -0.000000   0.000012  -0.000000
     9  O   -0.002941   0.000131   0.000553   0.000093  -0.000000   0.000403
    10  O    0.000000  -0.001529  -0.040372  -0.000000  -0.000000  -0.000000
    11  O   -0.012508   0.000000  -0.000000  -0.011348   0.000000  -0.081482
    12  O    0.000001  -0.000000  -0.000000   0.000017  -0.000221   0.000000
    13  O   -0.000001  -0.000021  -0.000005  -0.000002  -0.000021  -0.000000
    14  C    0.000468   0.001998   0.001473   0.002430  -0.000213   0.000873
    15  C    0.000269  -0.004482  -0.007263   0.000011  -0.000052  -0.000041
    16  C   -0.014489  -0.000005  -0.000076  -0.018826   0.000144  -0.004220
    17  C    0.000039  -0.000283   0.000004   0.000211   0.004573   0.000030
    18  C    0.000800  -0.002515  -0.007304  -0.000038   0.000007  -0.000053
    19  C    0.001465  -0.000047  -0.000074  -0.008423   0.000010  -0.004509
    20  C   -0.000020  -0.025554  -0.011273  -0.000004  -0.000127  -0.000001
    21  C   -0.000008   0.000001  -0.000005  -0.000053  -0.005275  -0.000007
    22  C   -0.006686  -0.000002  -0.000002  -0.043753  -0.000018  -0.003438
    23  C    0.000094   0.000975  -0.000185  -0.000000   0.000000   0.000007
    24  C   -0.000005   0.000002  -0.000015  -0.000150   0.003733  -0.000016
    25  C    0.286542  -0.000002   0.000007   0.029735  -0.000000   0.047139
    26  C   -0.000002  -0.035786   0.032134   0.000000   0.000005   0.000000
    27  C    0.000007   0.032134   0.205274   0.000000  -0.000000   0.000000
    28  C    0.029735   0.000000   0.000000   0.183597  -0.000008   0.065661
    29  C   -0.000000   0.000005  -0.000000  -0.000008   0.000608  -0.000001
    30  C    0.047139   0.000000   0.000000   0.065661  -0.000001  -0.074073
    31  C   -0.000000   0.000015  -0.000000  -0.000001   0.002293  -0.000000
    32  C   -0.000000   0.000000  -0.000000  -0.000001  -0.004870  -0.000000
    33  C   -0.000003  -0.000055  -0.000011  -0.000015   0.001245  -0.000003
    34  H    0.000000   0.001650   0.000122  -0.000000   0.000034   0.000000
    35  H    0.000014  -0.000000   0.000000   0.000305   0.000025   0.000116
    36  H   -0.000000   0.000288  -0.000221   0.000000   0.000000  -0.000000
    37  H   -0.000000  -0.000000  -0.000000  -0.000012  -0.000003  -0.000000
              31         32         33         34         35         36
     1  I   -0.000000  -0.000000  -0.000000  -0.000000  -0.000000   0.000004
     2  I    0.000000   0.000000  -0.000000  -0.000000  -0.000000   0.000000
     3  I   -0.000001  -0.000000   0.000002   0.000077  -0.000000   0.000165
     4  I   -0.000000   0.000000  -0.000000  -0.000000   0.000052   0.000000
     5  Cl   0.001355   0.000005  -0.000004  -0.000013  -0.000018  -0.000000
     6  Cl  -0.000002   0.001262  -0.000311  -0.000000  -0.000000  -0.000000
     7  Cl  -0.002424   0.001146   0.000000  -0.000000   0.000000   0.000000
     8  Cl   0.000015  -0.000067   0.000001   0.000000   0.000000   0.000000
     9  O   -0.000000  -0.000000  -0.000029  -0.000000  -0.000000  -0.000000
    10  O    0.000000   0.000000   0.000000   0.000000   0.000000  -0.000476
    11  O    0.000000   0.000000   0.000000  -0.000000   0.000001   0.000000
    12  O   -0.000001  -0.000000   0.000768   0.000000   0.000001  -0.000000
    13  O   -0.000001   0.000000  -0.000282   0.000017  -0.000000  -0.000000
    14  C   -0.000993  -0.000720  -0.005093   0.000432   0.000254  -0.000000
    15  C   -0.000341  -0.000001   0.001248   0.000252  -0.000002   0.000003
    16  C   -0.000067   0.000042   0.000840  -0.000012   0.000083   0.000000
    17  C    0.005937   0.001709  -0.000077   0.000223   0.000333  -0.000000
    18  C   -0.000004   0.000001   0.000148  -0.000254  -0.000000  -0.000014
    19  C    0.000003   0.000000   0.000085   0.000007  -0.000217  -0.000000
    20  C    0.000220   0.000045   0.000488  -0.003666  -0.000002   0.000025
    21  C    0.001783   0.004990   0.001365   0.000033  -0.000210   0.000000
    22  C    0.000222   0.000074   0.000287  -0.000005   0.000055   0.000000
    23  C    0.000000   0.000000  -0.000005   0.000020  -0.000000  -0.000185
    24  C    0.007548   0.004284  -0.000420  -0.000157  -0.000060  -0.000000
    25  C   -0.000000  -0.000000  -0.000003   0.000000   0.000014  -0.000000
    26  C    0.000015   0.000000  -0.000055   0.001650  -0.000000   0.000288
    27  C   -0.000000  -0.000000  -0.000011   0.000122   0.000000  -0.000221
    28  C   -0.000001  -0.000001  -0.000015  -0.000000   0.000305   0.000000
    29  C    0.002293  -0.004870   0.001245   0.000034   0.000025   0.000000
    30  C   -0.000000  -0.000000  -0.000003   0.000000   0.000116  -0.000000
    31  C   -0.013474  -0.002942  -0.000042  -0.000044  -0.000014  -0.000000
    32  C   -0.002942  -0.004159  -0.000085   0.000001  -0.000001   0.000000
    33  C   -0.000042  -0.000085  -0.006332  -0.000002  -0.000003  -0.000000
    34  H   -0.000044   0.000001  -0.000002  -0.008687  -0.000000  -0.000000
    35  H   -0.000014  -0.000001  -0.000003  -0.000000  -0.003117   0.000000
    36  H   -0.000000   0.000000  -0.000000  -0.000000   0.000000  -0.001246
    37  H   -0.000001   0.000021  -0.000036  -0.000000  -0.000005  -0.000000
              37
     1  I   -0.000000
     2  I   -0.000000
     3  I    0.000000
     4  I    0.000002
     5  Cl  -0.000000
     6  Cl   0.000031
     7  Cl  -0.000000
     8  Cl  -0.000000
     9  O   -0.000000
    10  O    0.000000
    11  O    0.000000
    12  O    0.000037
    13  O    0.000000
    14  C   -0.000134
    15  C    0.000002
    16  C    0.000041
    17  C   -0.000049
    18  C    0.000000
    19  C    0.000001
    20  C    0.000001
    21  C    0.000031
    22  C    0.000089
    23  C    0.000000
    24  C   -0.000008
    25  C   -0.000000
    26  C   -0.000000
    27  C   -0.000000
    28  C   -0.000012
    29  C   -0.000003
    30  C   -0.000000
    31  C   -0.000001
    32  C    0.000021
    33  C   -0.000036
    34  H   -0.000000
    35  H   -0.000005
    36  H   -0.000000
    37  H    0.000033
 Mulliken charges and spin densities:
               1          2
     1  I    0.256131  -0.001943
     2  I    0.322800   0.073281
     3  I    0.261802   0.003823
     4  I    0.233092   0.021582
     5  Cl   0.081130   0.002289
     6  Cl   0.080424   0.001321
     7  Cl   0.089193   0.001206
     8  Cl   0.093374  -0.000005
     9  O   -0.371494   0.079715
    10  O   -0.489849   0.039994
    11  O   -0.279542   0.455271
    12  O   -0.476255  -0.000319
    13  O   -0.274330   0.005087
    14  C    0.175730   0.554443
    15  C    0.255795  -0.036283
    16  C    0.199969   0.118389
    17  C    0.286351  -0.025013
    18  C    0.381154   0.141224
    19  C    0.445953   0.014582
    20  C   -0.231482   0.127016
    21  C    0.196583   0.008544
    22  C   -0.200607  -0.002288
    23  C   -0.774502  -0.094324
    24  C   -0.330008   0.005672
    25  C   -0.760799   0.274265
    26  C   -0.781694  -0.031198
    27  C    0.683110   0.168596
    28  C   -0.682776   0.169622
    29  C   -0.294117  -0.000933
    30  C    0.441763  -0.053059
    31  C   -0.110458  -0.000961
    32  C   -0.163073   0.000735
    33  C    0.238819  -0.006332
    34  H    0.307602  -0.009972
    35  H    0.305283  -0.002413
    36  H    0.420397  -0.001658
    37  H    0.464531   0.000040
 Sum of Mulliken charges =  -0.00000   2.00000
 Mulliken charges and spin densities with hydrogens summed into heavy atoms:
               1          2
     1  I    0.256131  -0.001943
     2  I    0.322800   0.073281
     3  I    0.261802   0.003823
     4  I    0.233092   0.021582
     5  Cl   0.081130   0.002289
     6  Cl   0.080424   0.001321
     7  Cl   0.089193   0.001206
     8  Cl   0.093374  -0.000005
     9  O   -0.371494   0.079715
    10  O   -0.069452   0.038336
    11  O   -0.279542   0.455271
    12  O   -0.011724  -0.000278
    13  O   -0.274330   0.005087
    14  C    0.175730   0.554443
    15  C    0.255795  -0.036283
    16  C    0.199969   0.118389
    17  C    0.286351  -0.025013
    18  C    0.381154   0.141224
    19  C    0.445953   0.014582
    20  C    0.076119   0.117044
    21  C    0.196583   0.008544
    22  C    0.104675  -0.004701
    23  C   -0.774502  -0.094324
    24  C   -0.330008   0.005672
    25  C   -0.760799   0.274265
    26  C   -0.781694  -0.031198
    27  C    0.683110   0.168596
    28  C   -0.682776   0.169622
    29  C   -0.294117  -0.000933
    30  C    0.441763  -0.053059
    31  C   -0.110458  -0.000961
    32  C   -0.163073   0.000735
    33  C    0.238819  -0.006332
 Electronic spatial extent (au):  <R**2>=          47170.6111
 Charge=             -0.0000 electrons
 Dipole moment (field-independent basis, Debye):
    X=              5.9050    Y=             -5.4471    Z=             -2.1199  Tot=              8.3087
 Quadrupole moment (field-independent basis, Debye-Ang):
   XX=           -198.0084   YY=           -295.9308   ZZ=           -291.6454
   XY=              1.3625   XZ=             -9.4810   YZ=              3.0655
 Traceless Quadrupole moment (field-independent basis, Debye-Ang):
   XX=             63.8532   YY=            -34.0693   ZZ=            -29.7839
   XY=              1.3625   XZ=             -9.4810   YZ=              3.0655
 Octapole moment (field-independent basis, Debye-Ang**2):
  XXX=          -4283.1761  YYY=          -2357.7022  ZZZ=            -28.9084  XYY=          -1512.5265
  XXY=           -415.8613  XXZ=             -9.2986  XZZ=          -1755.7760  YZZ=           -670.1820
  YYZ=             46.6339  XYZ=             36.7783
 Hexadecapole moment (field-independent basis, Debye-Ang**3):
 XXXX=         -70586.1402 YYYY=         -25493.9627 ZZZZ=          -3278.4610 XXXY=          -9056.9973
 XXXZ=            490.4764 YYYX=         -11987.5146 YYYZ=            363.7926 ZZZX=           -132.0464
 ZZZY=             42.4642 XXYY=         -14204.6586 XXZZ=         -13826.8820 YYZZ=          -4382.0954
 XXYZ=            466.7588 YYXZ=            372.1734 ZZXY=          -4009.9289
 N-N= 2.947389284185D+03 E-N=-8.752994339008D+03  KE= 1.168724358454D+03
 Unable to Open any file for archive entry.
 1\1\GINC-SE055\SP\UM062X TDA-FC\LANL2DZ\C20H4Cl4I4O5(3)\KEIGHAN\14-Jun
 -2024\0\\# M062X/LANL2DZ TDA=(triplet,root=1) scrf=(solvent=water) int
 =ultrafine Nosymm geom=checkpoint\\Rose Bengal triplet state calculati
 on\\0,3\I,0,1.0136550846,0.1822756267,0.0312094094\I,0,1.1347783084,4.
 8269659392,-0.0432371916\I,0,6.1511174433,-3.1827302791,0.0233993729\I
 ,0,6.4385193188,7.9284109005,-0.2587305074\Cl,0,7.323261769,2.22861408
 68,-2.8602998441\Cl,0,10.687016641,2.3077017258,2.5796126467\Cl,0,10.5
 234129534,2.106754321,-2.9627523651\Cl,0,12.2124262449,2.152228331,-0.
 2374394359\O,0,3.2691664496,2.4425992597,-0.0346245609\O,0,2.949106036
 1,-2.3056733642,0.034743258\O,0,3.295362517,7.2248834088,-0.1479090972
 \O,0,7.7436831246,3.5335328217,3.193329509\O,0,6.9063711325,1.47218301
 29,2.8163428136\C,0,6.0884547598,2.3934380417,-0.0755806997\C,0,5.3404
 220286,1.1587670757,-0.0471219839\C,0,5.4230702245,3.6167474168,-0.093
 8796284\C,0,7.5901415207,2.3407500533,-0.1060185701\C,0,3.9192744753,1
 .2174369532,-0.0285189114\C,0,3.9675958165,3.6460041416,-0.0703937121\
 C,0,5.9529307916,-0.1197643993,-0.0309049729\C,0,8.3439489498,2.383175
 8958,1.091737859\C,0,6.1052727448,4.8915955996,-0.1510719584\C,0,3.124
 9506177,0.0618864176,0.0001658343\C,0,8.2770014478,2.261478045,-1.3323
 135621\C,0,3.2509749975,4.8212750275,-0.0851128861\C,0,5.1869649451,-1
 .2783599785,-0.0048331858\C,0,3.7611081289,-1.2000596439,0.0095100218\
 C,0,5.4125296259,6.068388457,-0.1707678071\C,0,9.747898841,2.320934216
 1,1.0389332925\C,0,3.9269824892,6.1237892253,-0.1338095587\C,0,9.68113
 72757,2.2096798404,-1.3851941963\C,0,10.4233154448,2.2349899949,-0.189
 8007139\C,0,7.6142304226,2.405356768,2.4207018742\H,0,7.033711618,-0.1
 878539311,-0.0341955615\H,0,7.1886825079,4.8931777674,-0.1855323627\H,
 0,3.441564089,-3.1582877235,0.0397392776\H,0,8.2864792138,4.2571089485
 ,2.8084781042\\Version=ES64L-G16RevC.01\HF=-1244.928957\S2=2.036944\S2
 -1=0.\S2A=2.000764\RMSD=9.617e-09\PG=C01 [X(C20H4Cl4I4O5)]\\@
 The archive entry for this job was punched.


  THE LARGE PRINT GIVETH,
  AND THE SMALL PRINT TAKETH AWAY.

                     -- TOM WAITS
 Job cpu time:       0 days  5 hours 22 minutes 21.4 seconds.
 Elapsed time:       0 days  1 hours 22 minutes  7.7 seconds.
 File lengths (MBytes):  RWF=   1563 Int=      0 D2E=      0 Chk=     27 Scr=      1
 Normal termination of Gaussian 16 at Fri Jun 14 16:41:32 2024.
