 Entering Gaussian System, Link 0=g16
 Initial command:
 /arc/software/Gaussian/g16.c01/l1.exe "/tmp/slurm/1109052/Gau-158483.inp" -scrdir="/tmp/slurm/1109052/"
 Entering Link 1 = /arc/software/Gaussian/g16.c01/l1.exe PID=    158484.
  
 Copyright (c) 1988-2019, Gaussian, Inc.  All Rights Reserved.
  
 This is part of the Gaussian(R) 16 program.  It is based on
 the Gaussian(R) 09 system (copyright 2009, Gaussian, Inc.),
 the Gaussian(R) 03 system (copyright 2003, Gaussian, Inc.),
 the Gaussian(R) 98 system (copyright 1998, Gaussian, Inc.),
 the Gaussian(R) 94 system (copyright 1995, Gaussian, Inc.),
 the Gaussian 92(TM) system (copyright 1992, Gaussian, Inc.),
 the Gaussian 90(TM) system (copyright 1990, Gaussian, Inc.),
 the Gaussian 88(TM) system (copyright 1988, Gaussian, Inc.),
 the Gaussian 86(TM) system (copyright 1986, Carnegie Mellon
 University), and the Gaussian 82(TM) system (copyright 1983,
 Carnegie Mellon University). Gaussian is a federally registered
 trademark of Gaussian, Inc.
  
 This software contains proprietary and confidential information,
 including trade secrets, belonging to Gaussian, Inc.
  
 This software is provided under written license and may be
 used, copied, transmitted, or stored only in accord with that
 written license.
  
 The following legend is applicable only to US Government
 contracts under FAR:
  
                    RESTRICTED RIGHTS LEGEND
  
 Use, reproduction and disclosure by the US Government is
 subject to restrictions as set forth in subparagraphs (a)
 and (c) of the Commercial Computer Software - Restricted
 Rights clause in FAR 52.227-19.
  
 Gaussian, Inc.
 340 Quinnipiac St., Bldg. 40, Wallingford CT 06492
  
  
 ---------------------------------------------------------------
 Warning -- This program may not be used in any manner that
 competes with the business of Gaussian, Inc. or will provide
 assistance to any competitor of Gaussian, Inc.  The licensee
 of this program is prohibited from giving any competitor of
 Gaussian, Inc. access to this program.  By using this program,
 the user acknowledges that Gaussian, Inc. is engaged in the
 business of creating and licensing software in the field of
 computational chemistry and represents and warrants to the
 licensee that it is not a competitor of Gaussian, Inc. and that
 it will not use this program in any manner prohibited above.
 ---------------------------------------------------------------
  

 Cite this work as:
 Gaussian 16, Revision C.01,
 M. J. Frisch, G. W. Trucks, H. B. Schlegel, G. E. Scuseria, 
 M. A. Robb, J. R. Cheeseman, G. Scalmani, V. Barone, 
 G. A. Petersson, H. Nakatsuji, X. Li, M. Caricato, A. V. Marenich, 
 J. Bloino, B. G. Janesko, R. Gomperts, B. Mennucci, H. P. Hratchian, 
 J. V. Ortiz, A. F. Izmaylov, J. L. Sonnenberg, D. Williams-Young, 
 F. Ding, F. Lipparini, F. Egidi, J. Goings, B. Peng, A. Petrone, 
 T. Henderson, D. Ranasinghe, V. G. Zakrzewski, J. Gao, N. Rega, 
 G. Zheng, W. Liang, M. Hada, M. Ehara, K. Toyota, R. Fukuda, 
 J. Hasegawa, M. Ishida, T. Nakajima, Y. Honda, O. Kitao, H. Nakai, 
 T. Vreven, K. Throssell, J. A. Montgomery, Jr., J. E. Peralta, 
 F. Ogliaro, M. J. Bearpark, J. J. Heyd, E. N. Brothers, K. N. Kudin, 
 V. N. Staroverov, T. A. Keith, R. Kobayashi, J. Normand, 
 K. Raghavachari, A. P. Rendell, J. C. Burant, S. S. Iyengar, 
 J. Tomasi, M. Cossi, J. M. Millam, M. Klene, C. Adamo, R. Cammi, 
 J. W. Ochterski, R. L. Martin, K. Morokuma, O. Farkas, 
 J. B. Foresman, and D. J. Fox, Gaussian, Inc., Wallingford CT, 2019.
 
 ******************************************
 Gaussian 16:  ES64L-G16RevC.01  3-Jul-2019
                 4-Jun-2024 
 ******************************************
 %chk=co2.chk
 %mem=64GB
 %nprocshared=4
 Will use up to    4 processors via shared memory.
 --------------------
 # opt b3lyp/6-31g(d)
 --------------------
 1/18=20,19=15,26=3,38=1/1,3;
 2/9=110,12=2,17=6,18=5,40=1/2;
 3/5=1,6=6,7=1,11=2,25=1,30=1,71=1,74=-5/1,2,3;
 4//1;
 5/5=2,38=5/2;
 6/7=2,8=2,9=2,10=2,28=1/1;
 7//1,2,3,16;
 1/18=20,19=15,26=3/3(2);
 2/9=110/2;
 99//99;
 2/9=110/2;
 3/5=1,6=6,7=1,11=2,25=1,30=1,71=1,74=-5/1,2,3;
 4/5=5,16=3,69=1/1;
 5/5=2,38=5/2;
 7//1,2,3,16;
 1/18=20,19=15,26=3/3(-5);
 2/9=110/2;
 6/7=2,8=2,9=2,10=2,19=2,28=1/1;
 99/9=1/99;
 ---------------------------
 Carbon dioxide optimization
 ---------------------------
 Symbolic Z-matrix:
 Charge =  0 Multiplicity = 1
 C
 O                    1    R
 O                    1    R        2    A
       Variables:
  R                     1.2                      
  A                   180.                       
 

 GradGradGradGradGradGradGradGradGradGradGradGradGradGradGradGradGradGrad
 Berny optimization.
 Initialization pass.
                           ----------------------------
                           !    Initial Parameters    !
                           ! (Angstroms and Degrees)  !
 --------------------------                            --------------------------
 ! Name  Definition              Value          Derivative Info.                !
 --------------------------------------------------------------------------------
 ! R1    R(1,2)                  1.2            estimate D2E/DX2                !
 ! R2    R(1,3)                  1.2            estimate D2E/DX2                !
 ! A1    L(2,1,3,-1,-1)        180.0            estimate D2E/DX2                !
 ! A2    L(2,1,3,-2,-2)        180.0            estimate D2E/DX2                !
 --------------------------------------------------------------------------------
 Trust Radius=3.00D-01 FncErr=1.00D-07 GrdErr=1.00D-06 EigMax=2.50D+02 EigMin=1.00D-04
 Number of steps in this run=     20 maximum allowed number of steps=    100.
 GradGradGradGradGradGradGradGradGradGradGradGradGradGradGradGradGradGrad

                          Input orientation:                          
 ---------------------------------------------------------------------
 Center     Atomic      Atomic             Coordinates (Angstroms)
 Number     Number       Type             X           Y           Z
 ---------------------------------------------------------------------
      1          6           0        0.000000    0.000000    0.000000
      2          8           0        0.000000    0.000000    1.200000
      3          8           0        0.000000    0.000000   -1.200000
 ---------------------------------------------------------------------
                    Distance matrix (angstroms):
                    1          2          3
     1  C    0.000000
     2  O    1.200000   0.000000
     3  O    1.200000   2.400000   0.000000
 Stoichiometry    CO2
 Framework group  D*H[O(C),C*(O.O)]
 Deg. of freedom     1
 Full point group                 D*H     NOp   8
 Largest Abelian subgroup         D2H     NOp   8
 Largest concise Abelian subgroup C2      NOp   2
                         Standard orientation:                         
 ---------------------------------------------------------------------
 Center     Atomic      Atomic             Coordinates (Angstroms)
 Number     Number       Type             X           Y           Z
 ---------------------------------------------------------------------
      1          6           0        0.000000    0.000000    0.000000
      2          8           0        0.000000    0.000000    1.200000
      3          8           0        0.000000    0.000000   -1.200000
 ---------------------------------------------------------------------
 Rotational constants (GHZ):           0.0000000          10.9709134          10.9709134
 Standard basis: 6-31G(d) (6D, 7F)
 There are    14 symmetry adapted cartesian basis functions of AG  symmetry.
 There are     2 symmetry adapted cartesian basis functions of B1G symmetry.
 There are     4 symmetry adapted cartesian basis functions of B2G symmetry.
 There are     4 symmetry adapted cartesian basis functions of B3G symmetry.
 There are     1 symmetry adapted cartesian basis functions of AU  symmetry.
 There are    10 symmetry adapted cartesian basis functions of B1U symmetry.
 There are     5 symmetry adapted cartesian basis functions of B2U symmetry.
 There are     5 symmetry adapted cartesian basis functions of B3U symmetry.
 There are    14 symmetry adapted basis functions of AG  symmetry.
 There are     2 symmetry adapted basis functions of B1G symmetry.
 There are     4 symmetry adapted basis functions of B2G symmetry.
 There are     4 symmetry adapted basis functions of B3G symmetry.
 There are     1 symmetry adapted basis functions of AU  symmetry.
 There are    10 symmetry adapted basis functions of B1U symmetry.
 There are     5 symmetry adapted basis functions of B2U symmetry.
 There are     5 symmetry adapted basis functions of B3U symmetry.
    45 basis functions,    84 primitive gaussians,    45 cartesian basis functions
    11 alpha electrons       11 beta electrons
       nuclear repulsion energy        56.4455691648 Hartrees.
 NAtoms=    3 NActive=    3 NUniq=    2 SFac= 2.25D+00 NAtFMM=   60 NAOKFM=F Big=F
 Integral buffers will be    131072 words long.
 Raffenetti 2 integral format.
 Two-electron integral symmetry is turned on.
 One-electron integrals computed using PRISM.
 NBasis=    45 RedAO= T EigKep=  2.90D-03  NBF=    14     2     4     4     1    10     5     5
 NBsUse=    45 1.00D-06 EigRej= -1.00D+00 NBFU=    14     2     4     4     1    10     5     5
 ExpMin= 1.69D-01 ExpMax= 5.48D+03 ExpMxC= 8.25D+02 IAcc=3 IRadAn=         5 AccDes= 0.00D+00
 Harris functional with IExCor=  402 and IRadAn=       5 diagonalized for initial guess.
 HarFok:  IExCor=  402 AccDes= 0.00D+00 IRadAn=         5 IDoV= 1 UseB2=F ITyADJ=14
 ICtDFT=  3500011 ScaDFX=  1.000000  1.000000  1.000000  1.000000
 FoFCou: FMM=F IPFlag=           0 FMFlag=      100000 FMFlg1=           0
         NFxFlg=           0 DoJE=T BraDBF=F KetDBF=T FulRan=T
         wScrn=  0.000000 ICntrl=       500 IOpCl=  0 I1Cent=   200000004 NGrid=           0
         NMat0=    1 NMatS0=      1 NMatT0=    0 NMatD0=    1 NMtDS0=    0 NMtDT0=    0
 Petite list used in FoFCou.
 Initial guess orbital symmetries:
       Occupied  (SGU) (SGG) (SGG) (SGG) (SGU) (SGG) (SGU) (PIU)
                 (PIU) (PIG) (PIG)
       Virtual   (PIU) (PIU) (SGG) (SGU) (PIU) (PIU) (SGG) (SGU)
                 (SGG) (PIG) (PIG) (SGU) (PIU) (PIU) (SGG) (PIG)
                 (PIG) (DLTG) (DLTG) (DLTU) (DLTU) (SGU) (DLTG)
                 (DLTG) (PIU) (PIU) (SGG) (SGU) (PIG) (PIG) (SGG)
                 (SGG) (SGG) (SGU)
 The electronic state of the initial guess is 1-SGG.
 Keep R1 ints in memory in symmetry-blocked form, NReq=4016168.
 Requested convergence on RMS density matrix=1.00D-08 within 128 cycles.
 Requested convergence on MAX density matrix=1.00D-06.
 Requested convergence on             energy=1.00D-06.
 No special actions if energy rises.
 Integral accuracy reduced to 1.0D-05 until final iterations.
 Initial convergence to 1.0D-05 achieved.  Increase integral accuracy.
 SCF Done:  E(RB3LYP) =  -188.577336584     A.U. after   10 cycles
            NFock= 10  Conv=0.12D-08     -V/T= 2.0103

 **********************************************************************

            Population analysis using the SCF Density.

 **********************************************************************

 Orbital symmetries:
       Occupied  (SGG) (SGU) (SGG) (SGG) (SGU) (SGG) (SGU) (PIU)
                 (PIU) (PIG) (PIG)
       Virtual   (PIU) (PIU) (SGG) (SGU) (PIU) (PIU) (SGG) (SGU)
                 (SGG) (PIG) (PIG) (SGU) (PIU) (PIU) (SGG) (PIG)
                 (PIG) (DLTG) (DLTG) (DLTU) (DLTU) (SGU) (DLTG)
                 (DLTG) (PIU) (PIU) (SGG) (SGU) (PIG) (PIG) (SGG)
                 (SGG) (SGG) (SGU)
 The electronic state is 1-SGG.
 Alpha  occ. eigenvalues --  -19.24302 -19.24302 -10.39625  -1.14673  -1.10557
 Alpha  occ. eigenvalues --   -0.56796  -0.51556  -0.50249  -0.50249  -0.36893
 Alpha  occ. eigenvalues --   -0.36893
 Alpha virt. eigenvalues --    0.00924   0.00924   0.06742   0.36767   0.47672
 Alpha virt. eigenvalues --    0.47672   0.56440   0.70349   0.78214   0.87254
 Alpha virt. eigenvalues --    0.87254   0.98734   1.03321   1.03321   1.36125
 Alpha virt. eigenvalues --    1.38330   1.38330   1.40588   1.40588   1.72876
 Alpha virt. eigenvalues --    1.72876   1.82957   2.00105   2.00105   2.07651
 Alpha virt. eigenvalues --    2.07651   2.61766   2.87824   2.89961   2.89961
 Alpha virt. eigenvalues --    3.00475   3.70034   4.32801   4.41616
          Condensed to atoms (all electrons):
               1          2          3
     1  C    4.160499   0.556042   0.556042
     2  O    0.556042   7.830925  -0.023259
     3  O    0.556042  -0.023259   7.830925
 Mulliken charges:
               1
     1  C    0.727416
     2  O   -0.363708
     3  O   -0.363708
 Sum of Mulliken charges =  -0.00000
 Mulliken charges with hydrogens summed into heavy atoms:
               1
     1  C    0.727416
     2  O   -0.363708
     3  O   -0.363708
 Electronic spatial extent (au):  <R**2>=            118.1100
 Charge=              0.0000 electrons
 Dipole moment (field-independent basis, Debye):
    X=             -0.0000    Y=             -0.0000    Z=              0.0000  Tot=              0.0000
 Quadrupole moment (field-independent basis, Debye-Ang):
   XX=            -14.5939   YY=            -14.5939   ZZ=            -19.0084
   XY=              0.0000   XZ=              0.0000   YZ=              0.0000
 Traceless Quadrupole moment (field-independent basis, Debye-Ang):
   XX=              1.4715   YY=              1.4715   ZZ=             -2.9430
   XY=              0.0000   XZ=              0.0000   YZ=              0.0000
 Octapole moment (field-independent basis, Debye-Ang**2):
  XXX=             -0.0000  YYY=              0.0000  ZZZ=              0.0000  XYY=             -0.0000
  XXY=             -0.0000  XXZ=              0.0000  XZZ=             -0.0000  YZZ=             -0.0000
  YYZ=              0.0000  XYZ=             -0.0000
 Hexadecapole moment (field-independent basis, Debye-Ang**3):
 XXXX=            -10.5714 YYYY=            -10.5714 ZZZZ=           -105.0242 XXXY=              0.0000
 XXXZ=              0.0000 YYYX=              0.0000 YYYZ=              0.0000 ZZZX=              0.0000
 ZZZY=              0.0000 XXYY=             -3.5238 XXZZ=            -18.9281 YYZZ=            -18.9281
 XXYZ=              0.0000 YYXZ=              0.0000 ZZXY=             -0.0000
 N-N= 5.644556916480D+01 E-N=-5.557248155531D+02  KE= 1.866577178048D+02
 Symmetry AG   KE= 1.007702622054D+02
 Symmetry B1G  KE= 9.724885155232D-34
 Symmetry B2G  KE= 4.881092540416D+00
 Symmetry B3G  KE= 4.881092540416D+00
 Symmetry AU   KE= 1.759179692702D-34
 Symmetry B1U  KE= 6.892134764710D+01
 Symmetry B2U  KE= 3.601961435748D+00
 Symmetry B3U  KE= 3.601961435748D+00
 Calling FoFJK, ICntrl=      2127 FMM=F ISym2X=1 I1Cent= 0 IOpClX= 0 NMat=1 NMatS=1 NMatT=0.
 ***** Axes restored to original set *****
 -------------------------------------------------------------------
 Center     Atomic                   Forces (Hartrees/Bohr)
 Number     Number              X              Y              Z
 -------------------------------------------------------------------
      1        6           0.000000000    0.000000000    0.000000000
      2        8          -0.000000000   -0.000000000   -0.059624452
      3        8          -0.000000000   -0.000000000    0.059624452
 -------------------------------------------------------------------
 Cartesian Forces:  Max     0.059624452 RMS     0.028107236

 GradGradGradGradGradGradGradGradGradGradGradGradGradGradGradGradGradGrad
 Berny optimization.
 FormGI is forming the generalized inverse of G from B-inverse, IUseBI=4.
 Internal  Forces:  Max     0.059624452 RMS     0.042160854
 Search for a local minimum.
 Step number   1 out of a maximum of   20
 All quantities printed in internal units (Hartrees-Bohrs-Radians)
 Mixed Optimization -- RFO/linear search
 Second derivative matrix not updated -- first step.
 The second derivative matrix:
                          R1        R2        A1        A2
           R1           1.04823
           R2           0.00000   1.04823
           A1           0.00000   0.00000   0.04337
           A2           0.00000   0.00000   0.00000   0.04337
 ITU=  0
     Eigenvalues ---    0.04337   0.04337   1.04823   1.04823
 RFO step:  Lambda=-6.73967044D-03 EMin= 4.33739696D-02
 Linear search not attempted -- first point.
 Iteration  1 RMS(Cart)=  0.03996402 RMS(Int)=  0.00000000
 Iteration  2 RMS(Cart)=  0.00000000 RMS(Int)=  0.00000000
 ClnCor:  largest displacement from symmetrization is 1.94D-13 for atom     1.
 Variable       Old X    -DE/DX   Delta X   Delta X   Delta X     New X
                                 (Linear)    (Quad)   (Total)
    R1        2.26767  -0.05962   0.00000  -0.05652  -0.05652   2.21115
    R2        2.26767  -0.05962   0.00000  -0.05652  -0.05652   2.21115
    A1        3.14159   0.00000   0.00000   0.00000   0.00000   3.14159
    A2        3.14159  -0.00000   0.00000  -0.00000   0.00000   3.14159
         Item               Value     Threshold  Converged?
 Maximum Force            0.059624     0.000450     NO 
 RMS     Force            0.042161     0.000300     NO 
 Maximum Displacement     0.056518     0.001800     NO 
 RMS     Displacement     0.039964     0.001200     NO 
 Predicted change in Energy=-3.391362D-03
 GradGradGradGradGradGradGradGradGradGradGradGradGradGradGradGradGradGrad

                          Input orientation:                          
 ---------------------------------------------------------------------
 Center     Atomic      Atomic             Coordinates (Angstroms)
 Number     Number       Type             X           Y           Z
 ---------------------------------------------------------------------
      1          6           0        0.000000    0.000000    0.000000
      2          8           0        0.000000    0.000000    1.170092
      3          8           0        0.000000    0.000000   -1.170092
 ---------------------------------------------------------------------
                    Distance matrix (angstroms):
                    1          2          3
     1  C    0.000000
     2  O    1.170092   0.000000
     3  O    1.170092   2.340184   0.000000
 Stoichiometry    CO2
 Framework group  D*H[O(C),C*(O.O)]
 Deg. of freedom     1
 Full point group                 D*H     NOp   8
 Largest Abelian subgroup         D2H     NOp   8
 Largest concise Abelian subgroup C2      NOp   2
                         Standard orientation:                         
 ---------------------------------------------------------------------
 Center     Atomic      Atomic             Coordinates (Angstroms)
 Number     Number       Type             X           Y           Z
 ---------------------------------------------------------------------
      1          6           0        0.000000    0.000000    0.000000
      2          8           0        0.000000    0.000000    1.170092
      3          8           0        0.000000    0.000000   -1.170092
 ---------------------------------------------------------------------
 Rotational constants (GHZ):           0.0000000          11.5389197          11.5389197
 Standard basis: 6-31G(d) (6D, 7F)
 There are    14 symmetry adapted cartesian basis functions of AG  symmetry.
 There are     2 symmetry adapted cartesian basis functions of B1G symmetry.
 There are     4 symmetry adapted cartesian basis functions of B2G symmetry.
 There are     4 symmetry adapted cartesian basis functions of B3G symmetry.
 There are     1 symmetry adapted cartesian basis functions of AU  symmetry.
 There are    10 symmetry adapted cartesian basis functions of B1U symmetry.
 There are     5 symmetry adapted cartesian basis functions of B2U symmetry.
 There are     5 symmetry adapted cartesian basis functions of B3U symmetry.
 There are    14 symmetry adapted basis functions of AG  symmetry.
 There are     2 symmetry adapted basis functions of B1G symmetry.
 There are     4 symmetry adapted basis functions of B2G symmetry.
 There are     4 symmetry adapted basis functions of B3G symmetry.
 There are     1 symmetry adapted basis functions of AU  symmetry.
 There are    10 symmetry adapted basis functions of B1U symmetry.
 There are     5 symmetry adapted basis functions of B2U symmetry.
 There are     5 symmetry adapted basis functions of B3U symmetry.
    45 basis functions,    84 primitive gaussians,    45 cartesian basis functions
    11 alpha electrons       11 beta electrons
       nuclear repulsion energy        57.8883324261 Hartrees.
 NAtoms=    3 NActive=    3 NUniq=    2 SFac= 2.25D+00 NAtFMM=   60 NAOKFM=F Big=F
 Integral buffers will be    131072 words long.
 Raffenetti 2 integral format.
 Two-electron integral symmetry is turned on.
 One-electron integrals computed using PRISM.
 NBasis=    45 RedAO= T EigKep=  2.82D-03  NBF=    14     2     4     4     1    10     5     5
 NBsUse=    45 1.00D-06 EigRej= -1.00D+00 NBFU=    14     2     4     4     1    10     5     5
 Initial guess from the checkpoint file:  "co2.chk"
 B after Tr=    -0.000000    0.000000    0.000000
         Rot=    1.000000    0.000000    0.000000    0.000000 Ang=   0.00 deg.
 Initial guess orbital symmetries:
       Occupied  (SGG) (SGU) (SGG) (SGG) (SGU) (SGG) (SGU) (PIU)
                 (PIU) (PIG) (PIG)
       Virtual   (PIU) (PIU) (SGG) (SGU) (PIU) (PIU) (SGG) (SGU)
                 (SGG) (PIG) (PIG) (SGU) (PIU) (PIU) (SGG) (PIG)
                 (PIG) (DLTG) (DLTG) (DLTU) (DLTU) (SGU) (DLTG)
                 (DLTG) (PIU) (PIU) (SGG) (SGU) (PIG) (PIG) (SGG)
                 (SGG) (SGG) (SGU)
 ExpMin= 1.69D-01 ExpMax= 5.48D+03 ExpMxC= 8.25D+02 IAcc=3 IRadAn=         5 AccDes= 0.00D+00
 Harris functional with IExCor=  402 and IRadAn=       5 diagonalized for initial guess.
 HarFok:  IExCor=  402 AccDes= 0.00D+00 IRadAn=         5 IDoV= 1 UseB2=F ITyADJ=14
 ICtDFT=  3500011 ScaDFX=  1.000000  1.000000  1.000000  1.000000
 FoFCou: FMM=F IPFlag=           0 FMFlag=      100000 FMFlg1=           0
         NFxFlg=           0 DoJE=T BraDBF=F KetDBF=T FulRan=T
         wScrn=  0.000000 ICntrl=       500 IOpCl=  0 I1Cent=   200000004 NGrid=           0
         NMat0=    1 NMatS0=      1 NMatT0=    0 NMatD0=    1 NMtDS0=    0 NMtDT0=    0
 Petite list used in FoFCou.
 Keep R1 ints in memory in symmetry-blocked form, NReq=4016168.
 Requested convergence on RMS density matrix=1.00D-08 within 128 cycles.
 Requested convergence on MAX density matrix=1.00D-06.
 Requested convergence on             energy=1.00D-06.
 No special actions if energy rises.
 Integral accuracy reduced to 1.0D-05 until final iterations.
 Initial convergence to 1.0D-05 achieved.  Increase integral accuracy.
 SCF Done:  E(RB3LYP) =  -188.580935916     A.U. after    9 cycles
            NFock=  9  Conv=0.79D-08     -V/T= 2.0090
 Calling FoFJK, ICntrl=      2127 FMM=F ISym2X=1 I1Cent= 0 IOpClX= 0 NMat=1 NMatS=1 NMatT=0.
 ***** Axes restored to original set *****
 -------------------------------------------------------------------
 Center     Atomic                   Forces (Hartrees/Bohr)
 Number     Number              X              Y              Z
 -------------------------------------------------------------------
      1        6           0.000000000    0.000000000   -0.000000000
      2        8          -0.000000000   -0.000000000   -0.002002450
      3        8          -0.000000000   -0.000000000    0.002002450
 -------------------------------------------------------------------
 Cartesian Forces:  Max     0.002002450 RMS     0.000943964

 GradGradGradGradGradGradGradGradGradGradGradGradGradGradGradGradGradGrad
 Berny optimization.
 Using GEDIIS/GDIIS optimizer.
 Internal  Forces:  Max     0.002002450 RMS     0.001415946
 Search for a local minimum.
 Step number   2 out of a maximum of   20
 All quantities printed in internal units (Hartrees-Bohrs-Radians)
 Mixed Optimization -- RFO/linear search
 Update second derivatives using D2CorX and points    1    2
 DE= -3.60D-03 DEPred=-3.39D-03 R= 1.06D+00
 TightC=F SS=  1.41D+00  RLast= 7.99D-02 DXNew= 5.0454D-01 2.3978D-01
 Trust test= 1.06D+00 RLast= 7.99D-02 DXMaxT set to 3.00D-01
 The second derivative matrix:
                          R1        R2        A1        A2
           R1           1.03389
           R2          -0.01435   1.03389
           A1           0.00000   0.00000   0.04337
           A2          -0.00000  -0.00000  -0.00000   0.04337
 ITU=  1  0
 Use linear search instead of GDIIS.
     Eigenvalues ---    0.04337   0.04337   1.01954   1.04823
 RFO step:  Lambda= 0.00000000D+00 EMin= 4.33739696D-02
 Quartic linear search produced a step of  0.03123.
 Iteration  1 RMS(Cart)=  0.00124825 RMS(Int)=  0.00000000
 Iteration  2 RMS(Cart)=  0.00000000 RMS(Int)=  0.00000000
 ClnCor:  largest displacement from symmetrization is 2.30D-13 for atom     1.
 Variable       Old X    -DE/DX   Delta X   Delta X   Delta X     New X
                                 (Linear)    (Quad)   (Total)
    R1        2.21115  -0.00200  -0.00177   0.00000  -0.00177   2.20939
    R2        2.21115  -0.00200  -0.00177  -0.00000  -0.00177   2.20939
    A1        3.14159   0.00000   0.00000   0.00000   0.00000   3.14159
    A2        3.14159  -0.00000   0.00000  -0.00000   0.00000   3.14159
         Item               Value     Threshold  Converged?
 Maximum Force            0.002002     0.000450     NO 
 RMS     Force            0.001416     0.000300     NO 
 Maximum Displacement     0.001765     0.001800     YES
 RMS     Displacement     0.001248     0.001200     NO 
 Predicted change in Energy=-3.892674D-06
 GradGradGradGradGradGradGradGradGradGradGradGradGradGradGradGradGradGrad

                          Input orientation:                          
 ---------------------------------------------------------------------
 Center     Atomic      Atomic             Coordinates (Angstroms)
 Number     Number       Type             X           Y           Z
 ---------------------------------------------------------------------
      1          6           0        0.000000    0.000000   -0.000000
      2          8           0        0.000000    0.000000    1.169158
      3          8           0        0.000000    0.000000   -1.169158
 ---------------------------------------------------------------------
                    Distance matrix (angstroms):
                    1          2          3
     1  C    0.000000
     2  O    1.169158   0.000000
     3  O    1.169158   2.338316   0.000000
 Stoichiometry    CO2
 Framework group  D*H[O(C),C*(O.O)]
 Deg. of freedom     1
 Full point group                 D*H     NOp   8
 Largest Abelian subgroup         D2H     NOp   8
 Largest concise Abelian subgroup C2      NOp   2
                         Standard orientation:                         
 ---------------------------------------------------------------------
 Center     Atomic      Atomic             Coordinates (Angstroms)
 Number     Number       Type             X           Y           Z
 ---------------------------------------------------------------------
      1          6           0        0.000000    0.000000    0.000000
      2          8           0        0.000000    0.000000    1.169158
      3          8           0        0.000000    0.000000   -1.169158
 ---------------------------------------------------------------------
 Rotational constants (GHZ):           0.0000000          11.5573662          11.5573662
 Standard basis: 6-31G(d) (6D, 7F)
 There are    14 symmetry adapted cartesian basis functions of AG  symmetry.
 There are     2 symmetry adapted cartesian basis functions of B1G symmetry.
 There are     4 symmetry adapted cartesian basis functions of B2G symmetry.
 There are     4 symmetry adapted cartesian basis functions of B3G symmetry.
 There are     1 symmetry adapted cartesian basis functions of AU  symmetry.
 There are    10 symmetry adapted cartesian basis functions of B1U symmetry.
 There are     5 symmetry adapted cartesian basis functions of B2U symmetry.
 There are     5 symmetry adapted cartesian basis functions of B3U symmetry.
 There are    14 symmetry adapted basis functions of AG  symmetry.
 There are     2 symmetry adapted basis functions of B1G symmetry.
 There are     4 symmetry adapted basis functions of B2G symmetry.
 There are     4 symmetry adapted basis functions of B3G symmetry.
 There are     1 symmetry adapted basis functions of AU  symmetry.
 There are    10 symmetry adapted basis functions of B1U symmetry.
 There are     5 symmetry adapted basis functions of B2U symmetry.
 There are     5 symmetry adapted basis functions of B3U symmetry.
    45 basis functions,    84 primitive gaussians,    45 cartesian basis functions
    11 alpha electrons       11 beta electrons
       nuclear repulsion energy        57.9345850664 Hartrees.
 NAtoms=    3 NActive=    3 NUniq=    2 SFac= 2.25D+00 NAtFMM=   60 NAOKFM=F Big=F
 Integral buffers will be    131072 words long.
 Raffenetti 2 integral format.
 Two-electron integral symmetry is turned on.
 One-electron integrals computed using PRISM.
 NBasis=    45 RedAO= T EigKep=  2.82D-03  NBF=    14     2     4     4     1    10     5     5
 NBsUse=    45 1.00D-06 EigRej= -1.00D+00 NBFU=    14     2     4     4     1    10     5     5
 Initial guess from the checkpoint file:  "co2.chk"
 B after Tr=    -0.000000    0.000000    0.000000
         Rot=    1.000000    0.000000    0.000000    0.000000 Ang=   0.00 deg.
 Initial guess orbital symmetries:
       Occupied  (SGG) (SGU) (SGG) (SGG) (SGU) (SGG) (SGU) (PIU)
                 (PIU) (PIG) (PIG)
       Virtual   (PIU) (PIU) (SGG) (SGU) (PIU) (PIU) (SGG) (SGU)
                 (SGG) (PIG) (PIG) (SGU) (PIU) (PIU) (SGG) (DLTG)
                 (DLTG) (PIG) (PIG) (DLTU) (DLTU) (SGU) (DLTG)
                 (DLTG) (PIU) (PIU) (SGG) (SGU) (PIG) (PIG) (SGG)
                 (SGG) (SGG) (SGU)
 Keep R1 ints in memory in symmetry-blocked form, NReq=4016168.
 Requested convergence on RMS density matrix=1.00D-08 within 128 cycles.
 Requested convergence on MAX density matrix=1.00D-06.
 Requested convergence on             energy=1.00D-06.
 No special actions if energy rises.
 SCF Done:  E(RB3LYP) =  -188.580939451     A.U. after    6 cycles
            NFock=  6  Conv=0.61D-08     -V/T= 2.0089
 Calling FoFJK, ICntrl=      2127 FMM=F ISym2X=1 I1Cent= 0 IOpClX= 0 NMat=1 NMatS=1 NMatT=0.
 ***** Axes restored to original set *****
 -------------------------------------------------------------------
 Center     Atomic                   Forces (Hartrees/Bohr)
 Number     Number              X              Y              Z
 -------------------------------------------------------------------
      1        6           0.000000000    0.000000000    0.000000000
      2        8          -0.000000000   -0.000000000    0.000002484
      3        8          -0.000000000   -0.000000000   -0.000002484
 -------------------------------------------------------------------
 Cartesian Forces:  Max     0.000002484 RMS     0.000001171

 GradGradGradGradGradGradGradGradGradGradGradGradGradGradGradGradGradGrad
 Berny optimization.
 Using GEDIIS/GDIIS optimizer.
 Internal  Forces:  Max     0.000002484 RMS     0.000001757
 Search for a local minimum.
 Step number   3 out of a maximum of   20
 All quantities printed in internal units (Hartrees-Bohrs-Radians)
 Mixed Optimization -- En-DIIS/RFO-DIIS
 Update second derivatives using D2CorX and points    1    2    3
 DE= -3.53D-06 DEPred=-3.89D-06 R= 9.08D-01
 TightC=F SS=  1.41D+00  RLast= 2.50D-03 DXNew= 5.0454D-01 7.4895D-03
 Trust test= 9.08D-01 RLast= 2.50D-03 DXMaxT set to 3.00D-01
 The second derivative matrix:
                          R1        R2        A1        A2
           R1           1.09199
           R2           0.04376   1.09199
           A1           0.00000   0.00000   0.04337
           A2          -0.00000  -0.00000  -0.00000   0.04337
 ITU=  1  1  0
 Use linear search instead of GDIIS.
     Eigenvalues ---    0.04337   0.04337   1.04823   1.13575
 RFO step:  Lambda= 0.00000000D+00 EMin= 4.33739696D-02
 Quartic linear search produced a step of -0.00124.
 Iteration  1 RMS(Cart)=  0.00000154 RMS(Int)=  0.00000000
 Iteration  2 RMS(Cart)=  0.00000000 RMS(Int)=  0.00000000
 ClnCor:  largest displacement from symmetrization is 2.30D-13 for atom     1.
 Variable       Old X    -DE/DX   Delta X   Delta X   Delta X     New X
                                 (Linear)    (Quad)   (Total)
    R1        2.20939   0.00000   0.00000  -0.00000   0.00000   2.20939
    R2        2.20939   0.00000   0.00000   0.00000   0.00000   2.20939
    A1        3.14159   0.00000   0.00000   0.00000   0.00000   3.14159
    A2        3.14159  -0.00000   0.00000  -0.00000   0.00000   3.14159
         Item               Value     Threshold  Converged?
 Maximum Force            0.000002     0.000450     YES
 RMS     Force            0.000002     0.000300     YES
 Maximum Displacement     0.000002     0.001800     YES
 RMS     Displacement     0.000002     0.001200     YES
 Predicted change in Energy=-5.434654D-12
 Optimization completed.
    -- Stationary point found.
                           ----------------------------
                           !   Optimized Parameters   !
                           ! (Angstroms and Degrees)  !
 --------------------------                            --------------------------
 ! Name  Definition              Value          Derivative Info.                !
 --------------------------------------------------------------------------------
 ! R1    R(1,2)                  1.1692         -DE/DX =    0.0                 !
 ! R2    R(1,3)                  1.1692         -DE/DX =    0.0                 !
 ! A1    L(2,1,3,-1,-1)        180.0            -DE/DX =    0.0                 !
 ! A2    L(2,1,3,-2,-2)        180.0            -DE/DX =    0.0                 !
 --------------------------------------------------------------------------------
 GradGradGradGradGradGradGradGradGradGradGradGradGradGradGradGradGradGrad

                          Input orientation:                          
 ---------------------------------------------------------------------
 Center     Atomic      Atomic             Coordinates (Angstroms)
 Number     Number       Type             X           Y           Z
 ---------------------------------------------------------------------
      1          6           0        0.000000    0.000000    0.000000
      2          8           0        0.000000    0.000000    1.169158
      3          8           0        0.000000    0.000000   -1.169158
 ---------------------------------------------------------------------
                    Distance matrix (angstroms):
                    1          2          3
     1  C    0.000000
     2  O    1.169158   0.000000
     3  O    1.169158   2.338316   0.000000
 Stoichiometry    CO2
 Framework group  D*H[O(C),C*(O.O)]
 Deg. of freedom     1
 Full point group                 D*H     NOp   8
 Largest Abelian subgroup         D2H     NOp   8
 Largest concise Abelian subgroup C2      NOp   2
                         Standard orientation:                         
 ---------------------------------------------------------------------
 Center     Atomic      Atomic             Coordinates (Angstroms)
 Number     Number       Type             X           Y           Z
 ---------------------------------------------------------------------
      1          6           0        0.000000    0.000000    0.000000
      2          8           0        0.000000    0.000000    1.169158
      3          8           0        0.000000    0.000000   -1.169158
 ---------------------------------------------------------------------
 Rotational constants (GHZ):           0.0000000          11.5573662          11.5573662

 **********************************************************************

            Population analysis using the SCF Density.

 **********************************************************************

 Orbital symmetries:
       Occupied  (SGG) (SGU) (SGG) (SGG) (SGU) (SGG) (SGU) (PIU)
                 (PIU) (PIG) (PIG)
       Virtual   (PIU) (PIU) (SGG) (SGU) (PIU) (PIU) (SGG) (SGU)
                 (SGG) (PIG) (PIG) (SGU) (PIU) (PIU) (SGG) (DLTG)
                 (DLTG) (PIG) (PIG) (DLTU) (DLTU) (SGU) (DLTG)
                 (DLTG) (PIU) (PIU) (SGG) (SGU) (PIG) (PIG) (SGG)
                 (SGG) (SGG) (SGU)
 The electronic state is 1-SGG.
 Alpha  occ. eigenvalues --  -19.23659 -19.23658 -10.38530  -1.16098  -1.11964
 Alpha  occ. eigenvalues --   -0.56233  -0.51655  -0.51277  -0.51277  -0.36997
 Alpha  occ. eigenvalues --   -0.36997
 Alpha virt. eigenvalues --    0.02992   0.02992   0.08434   0.36575   0.47261
 Alpha virt. eigenvalues --    0.47261   0.58435   0.73525   0.78154   0.87419
 Alpha virt. eigenvalues --    0.87419   1.03774   1.04166   1.04166   1.37743
 Alpha virt. eigenvalues --    1.39388   1.39388   1.40640   1.40640   1.72628
 Alpha virt. eigenvalues --    1.72628   1.83353   2.02761   2.02761   2.12106
 Alpha virt. eigenvalues --    2.12106   2.72075   2.91523   2.95401   2.95401
 Alpha virt. eigenvalues --    3.04932   3.74170   4.38894   4.45001
          Condensed to atoms (all electrons):
               1          2          3
     1  C    4.105521   0.587503   0.587503
     2  O    0.587503   7.793878  -0.021645
     3  O    0.587503  -0.021645   7.793878
 Mulliken charges:
               1
     1  C    0.719473
     2  O   -0.359737
     3  O   -0.359737
 Sum of Mulliken charges =   0.00000
 Mulliken charges with hydrogens summed into heavy atoms:
               1
     1  C    0.719473
     2  O   -0.359737
     3  O   -0.359737
 Electronic spatial extent (au):  <R**2>=            113.6524
 Charge=             -0.0000 electrons
 Dipole moment (field-independent basis, Debye):
    X=             -0.0000    Y=              0.0000    Z=              0.0000  Tot=              0.0000
 Quadrupole moment (field-independent basis, Debye-Ang):
   XX=            -14.4508   YY=            -14.4508   ZZ=            -18.9144
   XY=              0.0000   XZ=              0.0000   YZ=              0.0000
 Traceless Quadrupole moment (field-independent basis, Debye-Ang):
   XX=              1.4879   YY=              1.4879   ZZ=             -2.9757
   XY=              0.0000   XZ=              0.0000   YZ=              0.0000
 Octapole moment (field-independent basis, Debye-Ang**2):
  XXX=             -0.0000  YYY=              0.0000  ZZZ=              0.0000  XYY=             -0.0000
  XXY=              0.0000  XXZ=              0.0000  XZZ=             -0.0000  YZZ=              0.0000
  YYZ=              0.0000  XYZ=             -0.0000
 Hexadecapole moment (field-independent basis, Debye-Ang**3):
 XXXX=            -10.3564 YYYY=            -10.3564 ZZZZ=           -100.4941 XXXY=              0.0000
 XXXZ=              0.0000 YYYX=              0.0000 YYYZ=              0.0000 ZZZX=              0.0000
 ZZZY=              0.0000 XXYY=             -3.4521 XXZZ=            -18.0712 YYZZ=            -18.0712
 XXYZ=              0.0000 YYXZ=              0.0000 ZZXY=             -0.0000
 N-N= 5.793458506642D+01 E-N=-5.588912003561D+02  KE= 1.869161348856D+02
 Symmetry AG   KE= 1.008894331206D+02
 Symmetry B1G  KE= 1.112034293927D-33
 Symmetry B2G  KE= 4.896527461514D+00
 Symmetry B3G  KE= 4.896527461514D+00
 Symmetry AU   KE= 1.943159616384D-34
 Symmetry B1U  KE= 6.901035690169D+01
 Symmetry B2U  KE= 3.611644970149D+00
 Symmetry B3U  KE= 3.611644970149D+00
 B after Tr=    -0.000000    0.000000    0.000000
         Rot=    1.000000    0.000000    0.000000    0.000000 Ang=   0.00 deg.
 Final structure in terms of initial Z-matrix:
 C
 O,1,R
 O,1,R,2,A
      Variables:
 R=1.16915799
 A=180.
 Unable to Open any file for archive entry.
 1\1\GINC-SE035\FOpt\RB3LYP\6-31G(d)\C1O2\KEIGHAN\04-Jun-2024\0\\# opt 
 b3lyp/6-31g(d)\\Carbon dioxide optimization\\0,1\C,0.,0.,0.\O,0.,0.,1.
 1691579895\O,0.,0.,-1.1691579895\\Version=ES64L-G16RevC.01\State=1-SGG
 \HF=-188.5809395\RMSD=6.071e-09\RMSF=1.171e-06\Dipole=0.,0.,0.\Quadrup
 ole=1.1061819,1.1061819,-2.2123639,0.,0.,0.\PG=D*H [O(C1),C*(O1.O1)]\\
 @
 The archive entry for this job was punched.


 BE CAREFUL NOT TO BECOME TOO GOOD OF A SONGBIRD OR 
 THEY'LL THROW YOU INTO A CAGE.

                                    -- SNOOPY TO WOODSTOCK
 Job cpu time:       0 days  0 hours  0 minutes  9.8 seconds.
 Elapsed time:       0 days  0 hours  0 minutes  3.8 seconds.
 File lengths (MBytes):  RWF=      6 Int=      0 D2E=      0 Chk=      1 Scr=      1
 Normal termination of Gaussian 16 at Tue Jun  4 14:45:08 2024.
