 Entering Gaussian System, Link 0=g16
 Initial command:
 /arc/software/Gaussian/g16.c01/l1.exe "/tmp/slurm/1114416/Gau-122713.inp" -scrdir="/tmp/slurm/1114416/"
 Entering Link 1 = /arc/software/Gaussian/g16.c01/l1.exe PID=    122714.
  
 Copyright (c) 1988-2019, Gaussian, Inc.  All Rights Reserved.
  
 This is part of the Gaussian(R) 16 program.  It is based on
 the Gaussian(R) 09 system (copyright 2009, Gaussian, Inc.),
 the Gaussian(R) 03 system (copyright 2003, Gaussian, Inc.),
 the Gaussian(R) 98 system (copyright 1998, Gaussian, Inc.),
 the Gaussian(R) 94 system (copyright 1995, Gaussian, Inc.),
 the Gaussian 92(TM) system (copyright 1992, Gaussian, Inc.),
 the Gaussian 90(TM) system (copyright 1990, Gaussian, Inc.),
 the Gaussian 88(TM) system (copyright 1988, Gaussian, Inc.),
 the Gaussian 86(TM) system (copyright 1986, Carnegie Mellon
 University), and the Gaussian 82(TM) system (copyright 1983,
 Carnegie Mellon University). Gaussian is a federally registered
 trademark of Gaussian, Inc.
  
 This software contains proprietary and confidential information,
 including trade secrets, belonging to Gaussian, Inc.
  
 This software is provided under written license and may be
 used, copied, transmitted, or stored only in accord with that
 written license.
  
 The following legend is applicable only to US Government
 contracts under FAR:
  
                    RESTRICTED RIGHTS LEGEND
  
 Use, reproduction and disclosure by the US Government is
 subject to restrictions as set forth in subparagraphs (a)
 and (c) of the Commercial Computer Software - Restricted
 Rights clause in FAR 52.227-19.
  
 Gaussian, Inc.
 340 Quinnipiac St., Bldg. 40, Wallingford CT 06492
  
  
 ---------------------------------------------------------------
 Warning -- This program may not be used in any manner that
 competes with the business of Gaussian, Inc. or will provide
 assistance to any competitor of Gaussian, Inc.  The licensee
 of this program is prohibited from giving any competitor of
 Gaussian, Inc. access to this program.  By using this program,
 the user acknowledges that Gaussian, Inc. is engaged in the
 business of creating and licensing software in the field of
 computational chemistry and represents and warrants to the
 licensee that it is not a competitor of Gaussian, Inc. and that
 it will not use this program in any manner prohibited above.
 ---------------------------------------------------------------
  

 Cite this work as:
 Gaussian 16, Revision C.01,
 M. J. Frisch, G. W. Trucks, H. B. Schlegel, G. E. Scuseria, 
 M. A. Robb, J. R. Cheeseman, G. Scalmani, V. Barone, 
 G. A. Petersson, H. Nakatsuji, X. Li, M. Caricato, A. V. Marenich, 
 J. Bloino, B. G. Janesko, R. Gomperts, B. Mennucci, H. P. Hratchian, 
 J. V. Ortiz, A. F. Izmaylov, J. L. Sonnenberg, D. Williams-Young, 
 F. Ding, F. Lipparini, F. Egidi, J. Goings, B. Peng, A. Petrone, 
 T. Henderson, D. Ranasinghe, V. G. Zakrzewski, J. Gao, N. Rega, 
 G. Zheng, W. Liang, M. Hada, M. Ehara, K. Toyota, R. Fukuda, 
 J. Hasegawa, M. Ishida, T. Nakajima, Y. Honda, O. Kitao, H. Nakai, 
 T. Vreven, K. Throssell, J. A. Montgomery, Jr., J. E. Peralta, 
 F. Ogliaro, M. J. Bearpark, J. J. Heyd, E. N. Brothers, K. N. Kudin, 
 V. N. Staroverov, T. A. Keith, R. Kobayashi, J. Normand, 
 K. Raghavachari, A. P. Rendell, J. C. Burant, S. S. Iyengar, 
 J. Tomasi, M. Cossi, J. M. Millam, M. Klene, C. Adamo, R. Cammi, 
 J. W. Ochterski, R. L. Martin, K. Morokuma, O. Farkas, 
 J. B. Foresman, and D. J. Fox, Gaussian, Inc., Wallingford CT, 2019.
 
 ******************************************
 Gaussian 16:  ES64L-G16RevC.01  3-Jul-2019
                 5-Jun-2024 
 ******************************************
 %chk=RB.chk
 %mem=128GB
 %nprocshared=4
 Will use up to    4 processors via shared memory.
 ----------------------------------------------------------------------
 # opt M062X/6-311g* TDA=(triplet,root=1) scrf=(solvent=water) int=ultr
 afine Nosymm
 ----------------------------------------------------------------------
 1/18=20,19=15,26=6,38=1/1,3;
 2/9=110,12=2,15=1,17=6,18=5,40=1/2;
 3/5=4,6=6,7=1,11=9,25=1,30=1,70=2201,71=1,72=1,74=-55,75=-5/1,2,3,8;
 4//1;
 5/5=2,38=5,53=1/2;
 8/6=1,10=2,107=1/1;
 9/8=1,15=2,42=1,48=3/14;
 10/5=4,28=1,31=1/2;
 6/7=2,8=2,9=2,10=2/1;
 7/12=6,13=5,14=1,30=1/1,2,3,16;
 1/18=20,19=15,26=6/3(2);
 2/9=110,15=1/2;
 99//99;
 2/9=110,15=1/2;
 3/5=4,6=6,7=1,11=9,25=1,30=1,70=2205,71=1,72=1,74=-55,75=-5/1,2,3,8;
 4/5=5,16=3,69=1/1;
 5/5=2,38=5,53=1/2;
 8/6=1,10=2,107=1/1;
 9/8=1,15=2,42=1,48=3,49=4/14;
 10/5=4,28=1,31=1/2;
 7/12=6,13=5,14=1,30=1/1,2,3,16;
 1/18=20,19=15,26=6/3(-8);
 2/9=110,15=1/2;
 6/7=2,8=2,9=2,10=2/1;
 99/9=10/99;
 -------------------------------------
 Rose Bengal triplet state calculation
 -------------------------------------
 Symbolic Z-matrix:
 Charge =  0 Multiplicity = 3
 I                     0.93301   0.0711    0.01281 
 I                     1.06753   4.7509    0.10646 
 I                     6.08381  -3.17284   0.23219 
 I                     6.38154   7.77212  -0.13624 
 Cl                    7.25503   2.11588  -2.6422 
 Cl                    10.63143   2.46268   2.66801 
 Cl                    10.39125   1.8956   -2.73986 
 Cl                    12.06799   2.14927  -0.09081 
 O                     3.15295   2.34001   0.00767 
 O                     2.92544  -2.429     0.10596 
 O                     3.2523    7.08333   0.17792 
 O                     8.05059   3.33938   3.50322 
 O                     6.49688   1.89379   2.79208 
 C                     6.0011    2.35362   0.07923 
 C                     5.20682   1.09105   0.11055 
 C                     5.31468   3.52964   0.02318 
 C                     7.50556   2.33618   0.07656 
 C                     3.81269   1.14283   0.06504 
 C                     3.84282   3.54313   0.03591 
 C                     5.82757  -0.16905   0.1735 
 C                     8.26325   2.42447   1.27852 
 C                     6.0051    4.81866  -0.0716 
 C                     3.04442  -0.03695   0.0732 
 C                     8.17908   2.19643  -1.16522 
 C                     3.14914   4.69906   0.0722 
 C                     5.06995  -1.34355   0.17144 
 C                     3.67719  -1.28419   0.11896 
 C                     5.35126   5.98937  -0.03104 
 C                     9.67194   2.37189   1.21569 
 C                     3.86011   6.02001   0.08826 
 C                     9.58311   2.12543  -1.2126 
 C                     10.32469   2.22019  -0.02739 
 C                     7.538     2.49673   2.58695 
 H                     6.9085   -0.24975   0.22952 
 H                     7.08235   4.83804  -0.18913 
 H                     3.5272   -3.19357   0.14256 
 H                     8.98397   3.60516   3.39053 
 

 GradGradGradGradGradGradGradGradGradGradGradGradGradGradGradGradGradGrad
 Berny optimization.
 Initialization pass.
                           ----------------------------
                           !    Initial Parameters    !
                           ! (Angstroms and Degrees)  !
 --------------------------                            --------------------------
 ! Name  Definition              Value          Derivative Info.                !
 --------------------------------------------------------------------------------
 ! R1    R(1,23)                 2.115          estimate D2E/DX2                !
 ! R2    R(2,25)                 2.0825         estimate D2E/DX2                !
 ! R3    R(3,26)                 2.0923         estimate D2E/DX2                !
 ! R4    R(4,28)                 2.0617         estimate D2E/DX2                !
 ! R5    R(5,24)                 1.7441         estimate D2E/DX2                !
 ! R6    R(6,29)                 1.743          estimate D2E/DX2                !
 ! R7    R(7,31)                 1.7431         estimate D2E/DX2                !
 ! R8    R(8,32)                 1.7459         estimate D2E/DX2                !
 ! R9    R(9,18)                 1.3681         estimate D2E/DX2                !
 ! R10   R(9,19)                 1.3872         estimate D2E/DX2                !
 ! R11   R(10,27)                1.3696         estimate D2E/DX2                !
 ! R12   R(10,36)                0.9737         estimate D2E/DX2                !
 ! R13   R(11,30)                1.2281         estimate D2E/DX2                !
 ! R14   R(12,33)                1.3462         estimate D2E/DX2                !
 ! R15   R(12,37)                0.977          estimate D2E/DX2                !
 ! R16   R(13,33)                1.2205         estimate D2E/DX2                !
 ! R17   R(14,15)                1.492          estimate D2E/DX2                !
 ! R18   R(14,16)                1.3628         estimate D2E/DX2                !
 ! R19   R(14,17)                1.5046         estimate D2E/DX2                !
 ! R20   R(15,18)                1.3958         estimate D2E/DX2                !
 ! R21   R(15,20)                1.4061         estimate D2E/DX2                !
 ! R22   R(16,19)                1.472          estimate D2E/DX2                !
 ! R23   R(16,22)                1.4653         estimate D2E/DX2                !
 ! R24   R(17,21)                1.4236         estimate D2E/DX2                !
 ! R25   R(17,24)                1.4196         estimate D2E/DX2                !
 ! R26   R(18,23)                1.4079         estimate D2E/DX2                !
 ! R27   R(19,25)                1.3486         estimate D2E/DX2                !
 ! R28   R(20,26)                1.3977         estimate D2E/DX2                !
 ! R29   R(20,34)                1.0854         estimate D2E/DX2                !
 ! R30   R(21,29)                1.4111         estimate D2E/DX2                !
 ! R31   R(21,33)                1.4977         estimate D2E/DX2                !
 ! R32   R(22,28)                1.3415         estimate D2E/DX2                !
 ! R33   R(22,35)                1.0838         estimate D2E/DX2                !
 ! R34   R(23,27)                1.3993         estimate D2E/DX2                !
 ! R35   R(24,31)                1.4066         estimate D2E/DX2                !
 ! R36   R(25,30)                1.5002         estimate D2E/DX2                !
 ! R37   R(26,27)                1.395          estimate D2E/DX2                !
 ! R38   R(28,30)                1.4962         estimate D2E/DX2                !
 ! R39   R(29,32)                1.4122         estimate D2E/DX2                !
 ! R40   R(31,32)                1.4013         estimate D2E/DX2                !
 ! A1    A(18,9,19)            121.2167         estimate D2E/DX2                !
 ! A2    A(27,10,36)           108.468          estimate D2E/DX2                !
 ! A3    A(33,12,37)           117.0989         estimate D2E/DX2                !
 ! A4    A(15,14,16)           117.5787         estimate D2E/DX2                !
 ! A5    A(15,14,17)           121.5045         estimate D2E/DX2                !
 ! A6    A(16,14,17)           120.9015         estimate D2E/DX2                !
 ! A7    A(14,15,18)           119.9766         estimate D2E/DX2                !
 ! A8    A(14,15,20)           121.6205         estimate D2E/DX2                !
 ! A9    A(18,15,20)           118.4005         estimate D2E/DX2                !
 ! A10   A(14,16,19)           120.7425         estimate D2E/DX2                !
 ! A11   A(14,16,22)           121.63           estimate D2E/DX2                !
 ! A12   A(19,16,22)           117.6213         estimate D2E/DX2                !
 ! A13   A(14,17,21)           122.0045         estimate D2E/DX2                !
 ! A14   A(14,17,24)           118.4971         estimate D2E/DX2                !
 ! A15   A(21,17,24)           119.4824         estimate D2E/DX2                !
 ! A16   A(9,18,15)            121.0281         estimate D2E/DX2                !
 ! A17   A(9,18,23)            118.0581         estimate D2E/DX2                !
 ! A18   A(15,18,23)           120.9136         estimate D2E/DX2                !
 ! A19   A(9,19,16)            119.2854         estimate D2E/DX2                !
 ! A20   A(9,19,25)            119.2195         estimate D2E/DX2                !
 ! A21   A(16,19,25)           121.4949         estimate D2E/DX2                !
 ! A22   A(15,20,26)           120.911          estimate D2E/DX2                !
 ! A23   A(15,20,34)           120.5703         estimate D2E/DX2                !
 ! A24   A(26,20,34)           118.5181         estimate D2E/DX2                !
 ! A25   A(17,21,29)           119.4351         estimate D2E/DX2                !
 ! A26   A(17,21,33)           118.8729         estimate D2E/DX2                !
 ! A27   A(29,21,33)           121.6085         estimate D2E/DX2                !
 ! A28   A(16,22,28)           122.4161         estimate D2E/DX2                !
 ! A29   A(16,22,35)           119.4099         estimate D2E/DX2                !
 ! A30   A(28,22,35)           118.171          estimate D2E/DX2                !
 ! A31   A(1,23,18)            120.1175         estimate D2E/DX2                !
 ! A32   A(1,23,27)            119.8606         estimate D2E/DX2                !
 ! A33   A(18,23,27)           120.0219         estimate D2E/DX2                !
 ! A34   A(5,24,17)            119.6013         estimate D2E/DX2                !
 ! A35   A(5,24,31)            119.8669         estimate D2E/DX2                !
 ! A36   A(17,24,31)           120.5316         estimate D2E/DX2                !
 ! A37   A(2,25,19)            122.4067         estimate D2E/DX2                !
 ! A38   A(2,25,30)            116.8468         estimate D2E/DX2                !
 ! A39   A(19,25,30)           120.7464         estimate D2E/DX2                !
 ! A40   A(3,26,20)            118.1631         estimate D2E/DX2                !
 ! A41   A(3,26,27)            121.4711         estimate D2E/DX2                !
 ! A42   A(20,26,27)           120.3637         estimate D2E/DX2                !
 ! A43   A(10,27,23)           119.7689         estimate D2E/DX2                !
 ! A44   A(10,27,26)           120.8488         estimate D2E/DX2                !
 ! A45   A(23,27,26)           119.3817         estimate D2E/DX2                !
 ! A46   A(4,28,22)            120.6296         estimate D2E/DX2                !
 ! A47   A(4,28,30)            118.9719         estimate D2E/DX2                !
 ! A48   A(22,28,30)           120.3984         estimate D2E/DX2                !
 ! A49   A(6,29,21)            120.6976         estimate D2E/DX2                !
 ! A50   A(6,29,32)            118.9855         estimate D2E/DX2                !
 ! A51   A(21,29,32)           120.3071         estimate D2E/DX2                !
 ! A52   A(11,30,25)           121.9121         estimate D2E/DX2                !
 ! A53   A(11,30,28)           121.1185         estimate D2E/DX2                !
 ! A54   A(25,30,28)           116.9632         estimate D2E/DX2                !
 ! A55   A(7,31,24)            119.9294         estimate D2E/DX2                !
 ! A56   A(7,31,32)            120.3063         estimate D2E/DX2                !
 ! A57   A(24,31,32)           119.7575         estimate D2E/DX2                !
 ! A58   A(8,32,29)            119.8591         estimate D2E/DX2                !
 ! A59   A(8,32,31)            119.6666         estimate D2E/DX2                !
 ! A60   A(29,32,31)           120.4743         estimate D2E/DX2                !
 ! A61   A(12,33,13)           121.3077         estimate D2E/DX2                !
 ! A62   A(12,33,21)           116.1303         estimate D2E/DX2                !
 ! A63   A(13,33,21)           122.4165         estimate D2E/DX2                !
 ! D1    D(19,9,18,15)          -2.0881         estimate D2E/DX2                !
 ! D2    D(19,9,18,23)         178.0816         estimate D2E/DX2                !
 ! D3    D(18,9,19,16)           4.7418         estimate D2E/DX2                !
 ! D4    D(18,9,19,25)        -175.3664         estimate D2E/DX2                !
 ! D5    D(36,10,27,23)        179.9827         estimate D2E/DX2                !
 ! D6    D(36,10,27,26)          0.2667         estimate D2E/DX2                !
 ! D7    D(37,12,33,13)        164.2475         estimate D2E/DX2                !
 ! D8    D(37,12,33,21)        -20.0345         estimate D2E/DX2                !
 ! D9    D(16,14,15,18)          0.821          estimate D2E/DX2                !
 ! D10   D(16,14,15,20)       -179.7583         estimate D2E/DX2                !
 ! D11   D(17,14,15,18)       -177.7659         estimate D2E/DX2                !
 ! D12   D(17,14,15,20)          1.6547         estimate D2E/DX2                !
 ! D13   D(15,14,16,19)          1.8538         estimate D2E/DX2                !
 ! D14   D(15,14,16,22)       -177.2215         estimate D2E/DX2                !
 ! D15   D(17,14,16,19)       -179.5502         estimate D2E/DX2                !
 ! D16   D(17,14,16,22)          1.3745         estimate D2E/DX2                !
 ! D17   D(15,14,17,21)        -93.2634         estimate D2E/DX2                !
 ! D18   D(15,14,17,24)         85.278          estimate D2E/DX2                !
 ! D19   D(16,14,17,21)         88.1963         estimate D2E/DX2                !
 ! D20   D(16,14,17,24)        -93.2623         estimate D2E/DX2                !
 ! D21   D(14,15,18,9)          -0.7869         estimate D2E/DX2                !
 ! D22   D(14,15,18,23)        179.0385         estimate D2E/DX2                !
 ! D23   D(20,15,18,9)         179.7739         estimate D2E/DX2                !
 ! D24   D(20,15,18,23)         -0.4006         estimate D2E/DX2                !
 ! D25   D(14,15,20,26)       -178.5309         estimate D2E/DX2                !
 ! D26   D(14,15,20,34)          1.7547         estimate D2E/DX2                !
 ! D27   D(18,15,20,26)          0.8986         estimate D2E/DX2                !
 ! D28   D(18,15,20,34)       -178.8158         estimate D2E/DX2                !
 ! D29   D(14,16,19,9)          -4.6535         estimate D2E/DX2                !
 ! D30   D(14,16,19,25)        175.4572         estimate D2E/DX2                !
 ! D31   D(22,16,19,9)         174.4579         estimate D2E/DX2                !
 ! D32   D(22,16,19,25)         -5.4314         estimate D2E/DX2                !
 ! D33   D(14,16,22,28)       -175.095          estimate D2E/DX2                !
 ! D34   D(14,16,22,35)          5.5464         estimate D2E/DX2                !
 ! D35   D(19,16,22,28)          5.802          estimate D2E/DX2                !
 ! D36   D(19,16,22,35)       -173.5566         estimate D2E/DX2                !
 ! D37   D(14,17,21,29)        178.5415         estimate D2E/DX2                !
 ! D38   D(14,17,21,33)          1.8115         estimate D2E/DX2                !
 ! D39   D(24,17,21,29)          0.0141         estimate D2E/DX2                !
 ! D40   D(24,17,21,33)       -176.7159         estimate D2E/DX2                !
 ! D41   D(14,17,24,5)           2.4802         estimate D2E/DX2                !
 ! D42   D(14,17,24,31)       -177.6506         estimate D2E/DX2                !
 ! D43   D(21,17,24,5)        -178.9407         estimate D2E/DX2                !
 ! D44   D(21,17,24,31)          0.9285         estimate D2E/DX2                !
 ! D45   D(9,18,23,1)           -0.462          estimate D2E/DX2                !
 ! D46   D(9,18,23,27)         179.4261         estimate D2E/DX2                !
 ! D47   D(15,18,23,1)         179.7074         estimate D2E/DX2                !
 ! D48   D(15,18,23,27)         -0.4044         estimate D2E/DX2                !
 ! D49   D(9,19,25,2)            0.6121         estimate D2E/DX2                !
 ! D50   D(9,19,25,30)        -179.3222         estimate D2E/DX2                !
 ! D51   D(16,19,25,2)        -179.4986         estimate D2E/DX2                !
 ! D52   D(16,19,25,30)          0.5672         estimate D2E/DX2                !
 ! D53   D(15,20,26,3)         178.8908         estimate D2E/DX2                !
 ! D54   D(15,20,26,27)         -0.5923         estimate D2E/DX2                !
 ! D55   D(34,20,26,3)          -1.389          estimate D2E/DX2                !
 ! D56   D(34,20,26,27)        179.1278         estimate D2E/DX2                !
 ! D57   D(17,21,29,6)        -179.4509         estimate D2E/DX2                !
 ! D58   D(17,21,29,32)         -0.5995         estimate D2E/DX2                !
 ! D59   D(33,21,29,6)          -2.8134         estimate D2E/DX2                !
 ! D60   D(33,21,29,32)        176.0381         estimate D2E/DX2                !
 ! D61   D(17,21,33,12)       -140.1373         estimate D2E/DX2                !
 ! D62   D(17,21,33,13)         35.5288         estimate D2E/DX2                !
 ! D63   D(29,21,33,12)         43.2067         estimate D2E/DX2                !
 ! D64   D(29,21,33,13)       -141.1272         estimate D2E/DX2                !
 ! D65   D(16,22,28,4)         178.9287         estimate D2E/DX2                !
 ! D66   D(16,22,28,30)         -1.2148         estimate D2E/DX2                !
 ! D67   D(35,22,28,4)          -1.7053         estimate D2E/DX2                !
 ! D68   D(35,22,28,30)        178.1513         estimate D2E/DX2                !
 ! D69   D(1,23,27,10)           0.8882         estimate D2E/DX2                !
 ! D70   D(1,23,27,26)        -179.3916         estimate D2E/DX2                !
 ! D71   D(18,23,27,10)       -179.0002         estimate D2E/DX2                !
 ! D72   D(18,23,27,26)          0.72           estimate D2E/DX2                !
 ! D73   D(5,24,31,7)           -2.3554         estimate D2E/DX2                !
 ! D74   D(5,24,31,32)         178.5876         estimate D2E/DX2                !
 ! D75   D(17,24,31,7)         177.7758         estimate D2E/DX2                !
 ! D76   D(17,24,31,32)         -1.2812         estimate D2E/DX2                !
 ! D77   D(2,25,30,11)           3.1839         estimate D2E/DX2                !
 ! D78   D(2,25,30,28)        -175.921          estimate D2E/DX2                !
 ! D79   D(19,25,30,11)       -176.8783         estimate D2E/DX2                !
 ! D80   D(19,25,30,28)          4.0168         estimate D2E/DX2                !
 ! D81   D(3,26,27,10)           0.0229         estimate D2E/DX2                !
 ! D82   D(3,26,27,23)        -179.6942         estimate D2E/DX2                !
 ! D83   D(20,26,27,10)        179.4886         estimate D2E/DX2                !
 ! D84   D(20,26,27,23)         -0.2285         estimate D2E/DX2                !
 ! D85   D(4,28,30,11)          -2.9507         estimate D2E/DX2                !
 ! D86   D(4,28,30,25)         176.1618         estimate D2E/DX2                !
 ! D87   D(22,28,30,11)        177.1904         estimate D2E/DX2                !
 ! D88   D(22,28,30,25)         -3.6971         estimate D2E/DX2                !
 ! D89   D(6,29,32,8)           -0.8524         estimate D2E/DX2                !
 ! D90   D(6,29,32,31)         179.1232         estimate D2E/DX2                !
 ! D91   D(21,29,32,8)        -179.7234         estimate D2E/DX2                !
 ! D92   D(21,29,32,31)          0.2523         estimate D2E/DX2                !
 ! D93   D(7,31,32,8)            1.6119         estimate D2E/DX2                !
 ! D94   D(7,31,32,29)        -178.3638         estimate D2E/DX2                !
 ! D95   D(24,31,32,8)        -179.3347         estimate D2E/DX2                !
 ! D96   D(24,31,32,29)          0.6896         estimate D2E/DX2                !
 --------------------------------------------------------------------------------
 Trust Radius=3.00D-01 FncErr=5.00D-06 GrdErr=5.00D-06 EigMax=2.50D+02 EigMin=1.00D-04
 Number of steps in this run=    209 maximum allowed number of steps=    222.
 GradGradGradGradGradGradGradGradGradGradGradGradGradGradGradGradGradGrad

                          Input orientation:                          
 ---------------------------------------------------------------------
 Center     Atomic      Atomic             Coordinates (Angstroms)
 Number     Number       Type             X           Y           Z
 ---------------------------------------------------------------------
      1         53           0        0.933010    0.071100    0.012810
      2         53           0        1.067530    4.750900    0.106460
      3         53           0        6.083810   -3.172840    0.232190
      4         53           0        6.381540    7.772120   -0.136240
      5         17           0        7.255030    2.115880   -2.642200
      6         17           0       10.631430    2.462680    2.668010
      7         17           0       10.391250    1.895600   -2.739860
      8         17           0       12.067990    2.149270   -0.090810
      9          8           0        3.152950    2.340010    0.007670
     10          8           0        2.925440   -2.429000    0.105960
     11          8           0        3.252300    7.083330    0.177920
     12          8           0        8.050590    3.339380    3.503220
     13          8           0        6.496880    1.893790    2.792080
     14          6           0        6.001100    2.353620    0.079230
     15          6           0        5.206820    1.091050    0.110550
     16          6           0        5.314680    3.529640    0.023180
     17          6           0        7.505560    2.336180    0.076560
     18          6           0        3.812690    1.142830    0.065040
     19          6           0        3.842820    3.543130    0.035910
     20          6           0        5.827570   -0.169050    0.173500
     21          6           0        8.263250    2.424470    1.278520
     22          6           0        6.005100    4.818660   -0.071600
     23          6           0        3.044420   -0.036950    0.073200
     24          6           0        8.179080    2.196430   -1.165220
     25          6           0        3.149140    4.699060    0.072200
     26          6           0        5.069950   -1.343550    0.171440
     27          6           0        3.677190   -1.284190    0.118960
     28          6           0        5.351260    5.989370   -0.031040
     29          6           0        9.671940    2.371890    1.215690
     30          6           0        3.860110    6.020010    0.088260
     31          6           0        9.583110    2.125430   -1.212600
     32          6           0       10.324690    2.220190   -0.027390
     33          6           0        7.538000    2.496730    2.586950
     34          1           0        6.908500   -0.249750    0.229520
     35          1           0        7.082350    4.838040   -0.189130
     36          1           0        3.527200   -3.193570    0.142560
     37          1           0        8.983970    3.605160    3.390530
 ---------------------------------------------------------------------
                    Distance matrix (angstroms):
                    1          2          3          4          5
     1  I    0.000000
     2  I    4.682670   0.000000
     3  I    6.091142   9.378941   0.000000
     4  I    9.434745   6.117628  10.955206   0.000000
     5  Cl   7.155288   7.265234   6.132245   6.247869   0.000000
     6  Cl  10.335816  10.161972   7.640232   7.356326   6.302276
     7  Cl  10.018198  10.158052   7.285342   7.575625   3.145463
     8  Cl  11.327723  11.305641   8.014961   7.997138   5.447503
     9  O    3.174289   3.189220   6.247549   6.320785   4.888671
    10  O    3.198274   7.416387   3.247235  10.773400   6.852275
    11  O    7.387675   3.196648  10.639991   3.219514   6.974990
    12  O    8.574646   7.892623   7.548302   5.973322   6.316332
    13  O    6.480987   6.697274   5.691608   6.568343   5.491404
    14  C    5.558763   5.485235   5.529195   5.436111   3.005835
    15  C    4.394918   5.525237   4.354844   6.788046   3.580932
    16  C    5.582171   4.420033   6.749703   4.377470   3.587189
    17  C    6.952199   6.876045   5.691651   5.555011   2.739152
    18  C    3.073091   4.533849   4.879645   7.112453   4.486165
    19  C    4.530179   3.027527   7.082712   4.935493   4.566453
    20  C    4.903082   6.846049   3.015271   7.966492   3.897013
    21  C    7.802102   7.652737   6.097101   5.842922   4.060022
    22  C    6.947845   4.941244   7.997659   2.978055   3.933869
    23  C    2.115035   5.180030   4.370009   8.494811   5.453193
    24  C    7.642664   7.662678   5.930596   5.947963   1.744083
    25  C    5.131547   2.082537   8.402660   4.464925   5.558698
    26  C    4.375005   7.291496   2.092344   9.214683   4.965763
    27  C    3.062450   6.575165   3.061313   9.454913   5.655565
    28  C    7.385714   4.461284   9.195217   2.061733   5.044445
    29  C    9.116439   8.995885   6.677273   6.466601   4.559639
    30  C    6.630470   3.067487   9.459072   3.078620   5.850053
    31  C    8.974750   9.008225   6.511849   6.579796   2.731996
    32  C    9.634514   9.597782   6.865655   6.810595   4.033723
    33  C    7.492381   7.287050   6.309008   6.048380   5.250631
    34  H    5.988020   7.690161   3.037199   8.047476   3.736718
    35  H    7.783243   6.022709   8.083860   3.017078   3.668450
    36  H    4.171897   8.316603   2.558265  11.334520   7.059877
    37  H    9.418945   8.646841   8.020432   6.047669   6.449885
                    6          7          8          9         10
     6  Cl   0.000000
     7  Cl   5.442823   0.000000
     8  Cl   3.126183   3.145357   0.000000
     9  O    7.938521   7.754960   8.917624   0.000000
    10  O    9.480238   9.085107  10.226705   4.775445   0.000000
    11  O    9.055524   9.294654  10.106115   4.747414   9.518216
    12  O    2.850774   6.821967   5.520228   6.099548   8.431058
    13  O    4.175348   6.765241   6.278024   4.374234   6.217470
    14  C    5.306000   5.237410   6.072712   2.849081   5.686286
    15  C    6.152102   5.970800   6.945216   2.406007   4.194695
    16  C    6.033354   6.006333   6.893882   2.467496   6.420336
    17  C    4.062349   4.056296   4.569323   4.353157   6.609486
    18  C    7.417053   7.191076   8.317884   1.368133   3.680605
    19  C    7.360744   7.300766   8.343400   1.387161   6.042585
    20  C    6.018775   5.794620   6.662380   3.671032   3.678899
    21  C    2.745982   4.577714   4.053005   5.266627   7.309123
    22  C    5.870182   5.907809   6.624549   3.779517   7.876827
    23  C    8.399042   8.100862   9.286080   2.380339   2.395231
    24  C    4.558351   2.731975   4.034873   5.163165   7.114157
    25  C    8.229477   8.259251   9.277601   2.359935   7.131649
    26  C    7.186815   6.876336   7.825671   4.155758   2.404457
    27  C    8.300491   7.960058   9.068527   3.663610   1.369630
    28  C    6.899464   7.035493   7.737209   4.260504   8.761982
    29  C    1.743014   4.048535   2.738167   6.630050   8.354359
    30  C    8.072204   8.225862   9.076563   3.748196   8.500570
    31  C    4.033838   1.743111   2.726465   6.548440   8.173494
    32  C    2.723614   2.732633   1.745894   7.172827   8.739660
    33  C    3.094679   6.072668   5.273702   5.089785   7.189843
    34  H    5.211882   5.054631   5.698969   4.567300   4.541934
    35  H    5.138244   5.110088   5.665312   4.660372   8.377162
    36  H    9.425558   9.017937  10.076978   5.547861   0.973664
    37  H    2.131061   6.518030   4.873451   6.858946   9.159982
                   11         12         13         14         15
    11  O    0.000000
    12  O    6.935299   0.000000
    13  O    6.655258   2.238183   0.000000
    14  C    5.471362   4.110455   2.795853   0.000000
    15  C    6.303341   4.965101   3.082085   1.491960   0.000000
    16  C    4.111699   4.430810   3.426428   1.362842   2.442537
    17  C    6.374632   3.611851   2.930391   1.504563   2.614519
    18  C    5.967941   5.882662   3.899431   2.501070   1.395833
    19  C    3.591921   5.456105   4.166633   2.464748   2.806914
    20  C    7.696041   5.323339   3.400036   2.530388   1.406110
    21  C    6.930073   2.414865   2.385906   2.561374   3.533260
    22  C    3.573360   4.376258   4.122787   2.469653   3.816478
    23  C    7.124084   6.944522   4.799953   3.802212   2.439212
    24  C    7.068167   4.808032   4.310639   2.513357   3.418155
    25  C    2.388841   6.135539   5.145352   3.692535   4.153704
    26  C    8.620684   6.474165   4.402755   3.813740   2.439204
    27  C    8.378508   7.208137   5.019540   4.316920   2.825173
    28  C    2.376141   5.176855   5.104530   3.695014   4.902494
    29  C    8.030343   2.966076   3.576953   3.842778   4.774849
    30  C    1.228056   6.033892   5.593647   4.245743   5.109674
    31  C    8.160482   5.105022   5.061219   3.814668   4.687492
    32  C    8.585510   4.346185   4.765299   4.326962   5.242764
    33  C    6.723656   1.346239   1.220470   2.944690   3.680067
    34  H    8.194176   4.990324   3.366141   2.761068   2.169704
    35  H    4.454810   4.100844   4.230721   2.722767   4.200875
    36  H   10.280637   8.627545   6.459117   6.074167   4.602186
    37  H    7.434418   0.977004   3.077750   4.629101   5.598739
                   16         17         18         19         20
    16  C    0.000000
    17  C    2.495426   0.000000
    18  C    2.820388   3.880916   0.000000
    19  C    1.471977   3.856688   2.400666   0.000000
    20  C    3.737106   3.016824   2.406768   4.211703   0.000000
    21  C    3.389889   1.423586   4.787757   4.726064   3.725581
    22  C    1.465345   2.904486   4.282179   2.512765   4.996883
    23  C    4.228137   5.053071   1.407901   3.668216   2.788088
    24  C    3.375579   1.419569   4.657142   4.696750   3.594060
    25  C    2.461607   4.955968   3.617613   1.348586   5.557224
    26  C    4.881583   4.413798   2.788209   5.040224   1.397656
    27  C    5.085618   5.269278   2.431397   4.830875   2.422942
    28  C    2.460599   4.242450   5.085802   2.874711   6.180198
    29  C    4.663494   2.447876   6.096343   6.061545   4.724586
    30  C    2.884779   5.182668   4.877466   2.477493   6.494816
    31  C    4.660306   2.454091   5.991295   6.043143   4.614108
    32  C    5.178554   2.823429   6.601166   6.615800   5.096363
    33  C    3.547248   2.515728   4.697979   4.610544   3.982047
    34  H    4.106900   2.658366   3.398584   4.880760   1.085385
    35  H    2.209444   2.551274   4.940633   3.495996   5.174642
    36  H    6.957793   6.812477   4.346479   6.744933   3.800050
    37  H    4.980807   3.844269   6.622997   6.139116   5.878504
                   21         22         23         24         25
    21  C    0.000000
    22  C    3.557276   0.000000
    23  C    5.894707   5.688896   0.000000
    24  C    2.455800   3.577469   5.734667   0.000000
    25  C    5.725652   2.862078   4.737168   5.752796   0.000000
    26  C    5.061696   6.237500   2.412390   4.897429   6.341332
    27  C    6.010881   6.534543   1.399321   5.833596   6.006688
    28  C    4.785723   1.341534   6.453597   4.865113   2.554387
    29  C    1.411070   4.592332   7.143656   2.815697   7.019274
    30  C    5.807949   2.463692   6.111656   5.902921   1.500215
    31  C    2.834984   4.621420   7.005971   1.406622   7.047713
    32  C    2.448809   5.041117   7.622803   2.428758   7.592314
    33  C    1.497731   3.848250   5.738531   3.818369   5.516912
    34  H    3.176035   5.157091   3.873091   3.089251   6.216772
    35  H    3.061673   1.083816   6.335552   3.022197   3.944331
    36  H    7.435250   8.389379   3.194078   7.238949   7.901993
    37  H    2.524689   4.725737   7.716728   4.836034   6.800968
                   26         27         28         29         30
    26  C    0.000000
    27  C    1.395012   0.000000
    28  C    7.341107   7.465232   0.000000
    29  C    6.006102   7.106811   5.771375   0.000000
    30  C    7.462751   7.306555   1.496228   6.953937   0.000000
    31  C    5.858157   6.948270   5.851040   2.442381   7.043630
    32  C    6.352328   7.516073   6.240331   1.412212   7.499520
    33  C    5.164660   5.940723   4.882032   2.539614   5.673079
    34  H    2.140102   3.394651   6.435799   3.934734   6.972985
    35  H    6.510900   7.012256   2.085000   3.842056   3.443375
    36  H    2.409042   1.915408   9.363959   8.359652   9.219752
    37  H    7.083207   7.922804   5.530658   2.593104   6.556709
                   31         32         33         34         35
    31  C    0.000000
    32  C    1.401301   0.000000
    33  C    4.330926   3.831043   0.000000
    34  H    3.856777   4.223383   3.673813   0.000000
    35  H    3.828778   4.170380   3.660050   5.107945   0.000000
    36  H    8.173265   8.691579   7.378419   4.484064   8.789532
    37  H    4.872102   3.924009   1.991278   5.399990   4.236758
                   36         37
    36  H    0.000000
    37  H    9.303138   0.000000
 Symmetry turned off by external request.
 Stoichiometry    C20H4Cl4I4O5(3)
 Framework group  C1[X(C20H4Cl4I4O5)]
 Deg. of freedom   105
 Full point group                 C1      NOp   1
 Rotational constants (GHZ):           0.0440191           0.0418810           0.0239986
 Standard basis: 6-311G(d) (5D, 7F)
 Atomic number out of range for 6-311G basis.
 Error termination via Lnk1e in /arc/software/Gaussian/g16.c01/l301.exe at Wed Jun  5 16:13:31 2024.
 Job cpu time:       0 days  0 hours  0 minutes  0.6 seconds.
 Elapsed time:       0 days  0 hours  0 minutes  0.6 seconds.
 File lengths (MBytes):  RWF=      6 Int=      0 D2E=      0 Chk=     31 Scr=      1
Error: segmentation violation
   rax 0x0000000000000000, rbx 0xffffffffffffffff, rcx 0xffffffffffffffff
   rdx 0x000000000001df5a, rsp 0x00007fffffff1368, rbp 0x0000000001459240
   rsi 0x000000000000000b, rdi 0x000000000001df5a, r8  0x0000000001037820
   r9  0x0000000060720060, r10 0x00007fffffff0760, r11 0x0000000000000202
   r12 0x00007fffffff1498, r13 0x00007fffffff1488, r14 0x00007fffffff1498
   r15 0x00007fffffff1490
  /usr/lib/gcc/x86_64-redhat-linux/4.8.5/../../../../lib64/libpthread.so.0(+0xf630) [0x2aaaaacde630]
  /usr/lib/gcc/x86_64-redhat-linux/4.8.5/../../../../lib64/libc.so.6(kill+0x7) [0x2aaaab223657]
  /arc/software/Gaussian/g16.c01/l301.exe() [0x408463]
