 Entering Gaussian System, Link 0=g16
 Initial command:
 /arc/software/Gaussian/g16.c01/l1.exe "/tmp/slurm/1128489/Gau-192335.inp" -scrdir="/tmp/slurm/1128489/"
 Entering Link 1 = /arc/software/Gaussian/g16.c01/l1.exe PID=    192336.
  
 Copyright (c) 1988-2019, Gaussian, Inc.  All Rights Reserved.
  
 This is part of the Gaussian(R) 16 program.  It is based on
 the Gaussian(R) 09 system (copyright 2009, Gaussian, Inc.),
 the Gaussian(R) 03 system (copyright 2003, Gaussian, Inc.),
 the Gaussian(R) 98 system (copyright 1998, Gaussian, Inc.),
 the Gaussian(R) 94 system (copyright 1995, Gaussian, Inc.),
 the Gaussian 92(TM) system (copyright 1992, Gaussian, Inc.),
 the Gaussian 90(TM) system (copyright 1990, Gaussian, Inc.),
 the Gaussian 88(TM) system (copyright 1988, Gaussian, Inc.),
 the Gaussian 86(TM) system (copyright 1986, Carnegie Mellon
 University), and the Gaussian 82(TM) system (copyright 1983,
 Carnegie Mellon University). Gaussian is a federally registered
 trademark of Gaussian, Inc.
  
 This software contains proprietary and confidential information,
 including trade secrets, belonging to Gaussian, Inc.
  
 This software is provided under written license and may be
 used, copied, transmitted, or stored only in accord with that
 written license.
  
 The following legend is applicable only to US Government
 contracts under FAR:
  
                    RESTRICTED RIGHTS LEGEND
  
 Use, reproduction and disclosure by the US Government is
 subject to restrictions as set forth in subparagraphs (a)
 and (c) of the Commercial Computer Software - Restricted
 Rights clause in FAR 52.227-19.
  
 Gaussian, Inc.
 340 Quinnipiac St., Bldg. 40, Wallingford CT 06492
  
  
 ---------------------------------------------------------------
 Warning -- This program may not be used in any manner that
 competes with the business of Gaussian, Inc. or will provide
 assistance to any competitor of Gaussian, Inc.  The licensee
 of this program is prohibited from giving any competitor of
 Gaussian, Inc. access to this program.  By using this program,
 the user acknowledges that Gaussian, Inc. is engaged in the
 business of creating and licensing software in the field of
 computational chemistry and represents and warrants to the
 licensee that it is not a competitor of Gaussian, Inc. and that
 it will not use this program in any manner prohibited above.
 ---------------------------------------------------------------
  

 Cite this work as:
 Gaussian 16, Revision C.01,
 M. J. Frisch, G. W. Trucks, H. B. Schlegel, G. E. Scuseria, 
 M. A. Robb, J. R. Cheeseman, G. Scalmani, V. Barone, 
 G. A. Petersson, H. Nakatsuji, X. Li, M. Caricato, A. V. Marenich, 
 J. Bloino, B. G. Janesko, R. Gomperts, B. Mennucci, H. P. Hratchian, 
 J. V. Ortiz, A. F. Izmaylov, J. L. Sonnenberg, D. Williams-Young, 
 F. Ding, F. Lipparini, F. Egidi, J. Goings, B. Peng, A. Petrone, 
 T. Henderson, D. Ranasinghe, V. G. Zakrzewski, J. Gao, N. Rega, 
 G. Zheng, W. Liang, M. Hada, M. Ehara, K. Toyota, R. Fukuda, 
 J. Hasegawa, M. Ishida, T. Nakajima, Y. Honda, O. Kitao, H. Nakai, 
 T. Vreven, K. Throssell, J. A. Montgomery, Jr., J. E. Peralta, 
 F. Ogliaro, M. J. Bearpark, J. J. Heyd, E. N. Brothers, K. N. Kudin, 
 V. N. Staroverov, T. A. Keith, R. Kobayashi, J. Normand, 
 K. Raghavachari, A. P. Rendell, J. C. Burant, S. S. Iyengar, 
 J. Tomasi, M. Cossi, J. M. Millam, M. Klene, C. Adamo, R. Cammi, 
 J. W. Ochterski, R. L. Martin, K. Morokuma, O. Farkas, 
 J. B. Foresman, and D. J. Fox, Gaussian, Inc., Wallingford CT, 2019.
 
 ******************************************
 Gaussian 16:  ES64L-G16RevC.01  3-Jul-2019
                 7-Jun-2024 
 ******************************************
 %chk=ground_state_opt.chk
 %mem=128GB
 %nprocshared=4
 Will use up to    4 processors via shared memory.
 -------------------------------------------------------------
 # opt B3LYP/6-311g* scrf=(solvent=water) int=ultrafine Nosymm
 -------------------------------------------------------------
 1/18=20,19=15,26=6,38=1/1,3;
 2/9=110,12=2,15=1,17=6,18=5,40=1/2;
 3/5=4,6=6,7=1,11=2,25=1,30=1,70=2201,71=1,72=1,74=-5,75=-5/1,2,3;
 4//1;
 5/5=2,38=5,53=1/2;
 6/7=2,8=2,9=2,10=2,28=1/1;
 7/30=1/1,2,3,16;
 1/18=20,19=15,26=6/3(2);
 2/9=110,15=1/2;
 99//99;
 2/9=110,15=1/2;
 3/5=4,6=6,7=1,11=2,25=1,30=1,70=2205,71=1,72=1,74=-5,75=-5/1,2,3;
 4/5=5,16=3,69=1/1;
 5/5=2,38=5,53=1/2;
 7/30=1/1,2,3,16;
 1/18=20,19=15,26=6/3(-5);
 2/9=110,15=1/2;
 6/7=2,8=2,9=2,10=2,19=2,28=1/1;
 99/9=1/99;
 -------------------------------------------------
 4-nitroanisole ground state geometry optimization
 -------------------------------------------------
 Symbolic Z-matrix:
 Charge =  0 Multiplicity = 1
 C                     1.79603   0.99436  -0.86241 
 O                     2.46183   0.02358  -0.06121 
 C                     3.13964  -0.94886  -0.74273 
 C                     4.21469  -1.51967  -0.05384 
 C                     4.97817  -2.5351   -0.6368 
 C                     4.64727  -2.98994  -1.91783 
 C                     3.55787  -2.43978  -2.60711 
 C                     2.80552  -1.41938  -2.01515 
 N                     5.43908  -4.05507  -2.54191 
 O                     5.09858  -4.44013  -3.671 
 O                     6.40278  -4.50561  -1.90711 
 H                     1.36954   1.74499  -0.19003 
 H                     0.96802   0.55569  -1.42706 
 H                     2.50325   1.50062  -1.52824 
 H                     4.46327  -1.16201   0.94354 
 H                     5.81645  -2.95219  -0.08374 
 H                     3.27738  -2.79637  -3.59689 
 H                     1.9531   -1.02833  -2.56142 
 

 GradGradGradGradGradGradGradGradGradGradGradGradGradGradGradGradGradGrad
 Berny optimization.
 Initialization pass.
                           ----------------------------
                           !    Initial Parameters    !
                           ! (Angstroms and Degrees)  !
 --------------------------                            --------------------------
 ! Name  Definition              Value          Derivative Info.                !
 --------------------------------------------------------------------------------
 ! R1    R(1,2)                  1.4239         estimate D2E/DX2                !
 ! R2    R(1,12)                 1.0943         estimate D2E/DX2                !
 ! R3    R(1,13)                 1.094          estimate D2E/DX2                !
 ! R4    R(1,14)                 1.0953         estimate D2E/DX2                !
 ! R5    R(2,3)                  1.3673         estimate D2E/DX2                !
 ! R6    R(3,4)                  1.3986         estimate D2E/DX2                !
 ! R7    R(3,8)                  1.3972         estimate D2E/DX2                !
 ! R8    R(4,5)                  1.3978         estimate D2E/DX2                !
 ! R9    R(4,15)                 1.0883         estimate D2E/DX2                !
 ! R10   R(5,6)                  1.3991         estimate D2E/DX2                !
 ! R11   R(5,16)                 1.0875         estimate D2E/DX2                !
 ! R12   R(6,7)                  1.4016         estimate D2E/DX2                !
 ! R13   R(6,9)                  1.4666         estimate D2E/DX2                !
 ! R14   R(7,8)                  1.3992         estimate D2E/DX2                !
 ! R15   R(7,17)                 1.0888         estimate D2E/DX2                !
 ! R16   R(8,18)                 1.0853         estimate D2E/DX2                !
 ! R17   R(9,10)                 1.2406         estimate D2E/DX2                !
 ! R18   R(9,11)                 1.2388         estimate D2E/DX2                !
 ! A1    A(2,1,12)             107.7078         estimate D2E/DX2                !
 ! A2    A(2,1,13)             111.7728         estimate D2E/DX2                !
 ! A3    A(2,1,14)             110.8077         estimate D2E/DX2                !
 ! A4    A(12,1,13)            107.2899         estimate D2E/DX2                !
 ! A5    A(12,1,14)            107.9451         estimate D2E/DX2                !
 ! A6    A(13,1,14)            111.116          estimate D2E/DX2                !
 ! A7    A(1,2,3)              115.8619         estimate D2E/DX2                !
 ! A8    A(2,3,4)              115.201          estimate D2E/DX2                !
 ! A9    A(2,3,8)              125.0925         estimate D2E/DX2                !
 ! A10   A(4,3,8)              119.6662         estimate D2E/DX2                !
 ! A11   A(3,4,5)              120.7238         estimate D2E/DX2                !
 ! A12   A(3,4,15)             119.5266         estimate D2E/DX2                !
 ! A13   A(5,4,15)             119.7475         estimate D2E/DX2                !
 ! A14   A(4,5,6)              119.2652         estimate D2E/DX2                !
 ! A15   A(4,5,16)             119.1809         estimate D2E/DX2                !
 ! A16   A(6,5,16)             121.5539         estimate D2E/DX2                !
 ! A17   A(5,6,7)              120.4308         estimate D2E/DX2                !
 ! A18   A(5,6,9)              119.8702         estimate D2E/DX2                !
 ! A19   A(7,6,9)              119.6979         estimate D2E/DX2                !
 ! A20   A(6,7,8)              119.7442         estimate D2E/DX2                !
 ! A21   A(6,7,17)             121.2464         estimate D2E/DX2                !
 ! A22   A(8,7,17)             119.0078         estimate D2E/DX2                !
 ! A23   A(3,8,7)              120.1535         estimate D2E/DX2                !
 ! A24   A(3,8,18)             121.659          estimate D2E/DX2                !
 ! A25   A(7,8,18)             118.1734         estimate D2E/DX2                !
 ! A26   A(6,9,10)             117.679          estimate D2E/DX2                !
 ! A27   A(6,9,11)             117.7795         estimate D2E/DX2                !
 ! A28   A(10,9,11)            124.5413         estimate D2E/DX2                !
 ! D1    D(12,1,2,3)          -175.5758         estimate D2E/DX2                !
 ! D2    D(13,1,2,3)            66.8119         estimate D2E/DX2                !
 ! D3    D(14,1,2,3)           -57.7145         estimate D2E/DX2                !
 ! D4    D(1,2,3,4)            153.562          estimate D2E/DX2                !
 ! D5    D(1,2,3,8)            -28.7654         estimate D2E/DX2                !
 ! D6    D(2,3,4,5)            179.2902         estimate D2E/DX2                !
 ! D7    D(2,3,4,15)            -1.2408         estimate D2E/DX2                !
 ! D8    D(8,3,4,5)              1.4817         estimate D2E/DX2                !
 ! D9    D(8,3,4,15)          -179.0492         estimate D2E/DX2                !
 ! D10   D(2,3,8,7)           -178.739          estimate D2E/DX2                !
 ! D11   D(2,3,8,18)            -0.1342         estimate D2E/DX2                !
 ! D12   D(4,3,8,7)             -1.1626         estimate D2E/DX2                !
 ! D13   D(4,3,8,18)           177.4422         estimate D2E/DX2                !
 ! D14   D(3,4,5,6)             -0.7183         estimate D2E/DX2                !
 ! D15   D(3,4,5,16)           179.2151         estimate D2E/DX2                !
 ! D16   D(15,4,5,6)           179.8138         estimate D2E/DX2                !
 ! D17   D(15,4,5,16)           -0.2528         estimate D2E/DX2                !
 ! D18   D(4,5,6,7)             -0.363          estimate D2E/DX2                !
 ! D19   D(4,5,6,9)           -179.9799         estimate D2E/DX2                !
 ! D20   D(16,5,6,7)           179.7053         estimate D2E/DX2                !
 ! D21   D(16,5,6,9)             0.0883         estimate D2E/DX2                !
 ! D22   D(5,6,7,8)              0.6722         estimate D2E/DX2                !
 ! D23   D(5,6,7,17)          -178.8605         estimate D2E/DX2                !
 ! D24   D(9,6,7,8)           -179.7101         estimate D2E/DX2                !
 ! D25   D(9,6,7,17)             0.7571         estimate D2E/DX2                !
 ! D26   D(5,6,9,10)           179.0193         estimate D2E/DX2                !
 ! D27   D(5,6,9,11)            -1.1455         estimate D2E/DX2                !
 ! D28   D(7,6,9,10)            -0.6004         estimate D2E/DX2                !
 ! D29   D(7,6,9,11)           179.2348         estimate D2E/DX2                !
 ! D30   D(6,7,8,3)              0.0965         estimate D2E/DX2                !
 ! D31   D(6,7,8,18)          -178.5564         estimate D2E/DX2                !
 ! D32   D(17,7,8,3)           179.6397         estimate D2E/DX2                !
 ! D33   D(17,7,8,18)            0.9868         estimate D2E/DX2                !
 --------------------------------------------------------------------------------
 Trust Radius=3.00D-01 FncErr=5.00D-06 GrdErr=5.00D-06 EigMax=2.50D+02 EigMin=1.00D-04
 Number of steps in this run=     89 maximum allowed number of steps=    108.
 GradGradGradGradGradGradGradGradGradGradGradGradGradGradGradGradGradGrad

                          Input orientation:                          
 ---------------------------------------------------------------------
 Center     Atomic      Atomic             Coordinates (Angstroms)
 Number     Number       Type             X           Y           Z
 ---------------------------------------------------------------------
      1          6           0        1.796030    0.994360   -0.862410
      2          8           0        2.461830    0.023580   -0.061210
      3          6           0        3.139640   -0.948860   -0.742730
      4          6           0        4.214690   -1.519670   -0.053840
      5          6           0        4.978170   -2.535100   -0.636800
      6          6           0        4.647270   -2.989940   -1.917830
      7          6           0        3.557870   -2.439780   -2.607110
      8          6           0        2.805520   -1.419380   -2.015150
      9          7           0        5.439080   -4.055070   -2.541910
     10          8           0        5.098580   -4.440130   -3.671000
     11          8           0        6.402780   -4.505610   -1.907110
     12          1           0        1.369540    1.744990   -0.190030
     13          1           0        0.968020    0.555690   -1.427060
     14          1           0        2.503250    1.500620   -1.528240
     15          1           0        4.463270   -1.162010    0.943540
     16          1           0        5.816450   -2.952190   -0.083740
     17          1           0        3.277380   -2.796370   -3.596890
     18          1           0        1.953100   -1.028330   -2.561420
 ---------------------------------------------------------------------
                    Distance matrix (angstroms):
                    1          2          3          4          5
     1  C    0.000000
     2  O    1.423947   0.000000
     3  C    2.365526   1.367310   0.000000
     4  C    3.581068   2.335421   1.398616   0.000000
     5  C    4.757521   3.634572   2.430550   1.397799   0.000000
     6  C    5.011799   4.159866   2.796393   2.413147   1.399075
     7  C    4.235726   3.708241   2.423566   2.792347   2.430732
     8  C    2.859024   2.453189   1.397168   2.417138   2.804476
     9  N    6.448975   5.626124   4.262982   3.757376   2.480361
    10  O    6.951884   6.317257   4.959957   4.732250   3.584691
    11  O    7.250049   6.281082   4.965313   4.139829   2.743376
    12  H    1.094273   2.042779   3.270407   4.332601   5.616136
    13  H    1.094012   2.092882   2.729086   4.090687   5.124334
    14  H    1.095349   2.082196   2.649900   3.771609   4.817357
    15  H    3.876281   2.533951   2.154283   1.088338   2.155916
    16  H    5.687298   4.484327   3.407772   2.149103   1.087452
    17  H    4.903204   4.595462   3.402719   3.880943   3.423899
    18  H    2.646239   2.759777   2.172976   3.412354   3.889160
                    6          7          8          9         10
     6  C    0.000000
     7  C    1.401633   0.000000
     8  C    2.422431   1.399165   0.000000
     9  N    1.466609   2.480396   3.762974   0.000000
    10  O    2.319555   2.739900   4.138224   1.240587   0.000000
    11  O    2.319307   3.584852   4.740967   1.238820   2.194660
    12  H    6.012351   5.305032   3.925091   7.465467   8.017394
    13  H    5.133150   4.131910   2.761007   6.518618   6.859665
    14  H    4.991366   4.219353   2.975710   6.364929   6.827860
    15  H    3.400386   3.880665   3.401209   4.633612   5.695934
    16  H    2.175383   3.425076   3.891728   2.720543   3.949397
    17  H    2.175617   1.088805   2.149571   2.714821   2.454426
    18  H    3.394212   2.137654   1.085334   4.616665   4.771330
                   11         12         13         14         15
    11  O    0.000000
    12  H    8.206818   0.000000
    13  H    7.442031   1.762355   0.000000
    14  H    7.171100   1.770825   1.805564   0.000000
    15  H    4.802871   4.393950   4.559277   4.128071   0.000000
    16  H    2.466085   6.469143   6.133270   5.735102   2.468024
    17  H    3.942713   5.989199   4.612766   4.831430   4.969202
    18  H    5.685002   3.695313   2.183180   2.786703   4.313185
                   16         17         18
    16  H    0.000000
    17  H    4.337439   0.000000
    18  H    4.976506   2.439648   0.000000
 Symmetry turned off by external request.
 Stoichiometry    C7H7NO3
 Framework group  C1[X(C7H7NO3)]
 Deg. of freedom    48
 Full point group                 C1      NOp   1
 Rotational constants (GHZ):           3.4997277           0.5794080           0.5018996
 Standard basis: 6-311G(d) (5D, 7F)
   219 basis functions,   387 primitive gaussians,   230 cartesian basis functions
    40 alpha electrons       40 beta electrons
       nuclear repulsion energy       580.3522273462 Hartrees.
 NAtoms=   18 NActive=   18 NUniq=   18 SFac= 1.00D+00 NAtFMM=   60 NAOKFM=F Big=F
 Integral buffers will be    131072 words long.
 Raffenetti 2 integral format.
 Two-electron integral symmetry is turned off.
 ------------------------------------------------------------------------------
 Polarizable Continuum Model (PCM)
 =================================
 Model                : PCM.
 Atomic radii         : UFF (Universal Force Field).
 Polarization charges : Total charges.
 Charge compensation  : None.
 Solution method      : On-the-fly selection.
 Cavity type          : Scaled VdW (van der Waals Surface) (Alpha=1.100).
 Cavity algorithm     : GePol (No added spheres)
                        Default sphere list used, NSphG=   18.
                        Lebedev-Laikov grids with approx.  5.0 points / Ang**2.
                        Smoothing algorithm: York/Karplus (Gamma=1.0000).
                        Polarization charges: spherical gaussians, with
                                              point-specific exponents (IZeta= 3).
                        Self-potential: point-specific (ISelfS= 7).
                        Self-field    : sphere-specific E.n sum rule (ISelfD= 2).
 1st derivatives      : Analytical E(r).r(x)/FMM algorithm (CHGder, D1EAlg=3).
                        Cavity 1st derivative terms included.
 Solvent              : Water, Eps=  78.355300 Eps(inf)=   1.777849
 ------------------------------------------------------------------------------
 Spheres list:
 ISph  on   Nord     Re0    Alpha      Xe            Ye            Ze
    1   C      1    1.9255  1.100      1.796030      0.994360     -0.862410
    2   O      2    1.7500  1.100      2.461830      0.023580     -0.061210
    3   C      3    1.9255  1.100      3.139640     -0.948860     -0.742730
    4   C      4    1.9255  1.100      4.214690     -1.519670     -0.053840
    5   C      5    1.9255  1.100      4.978170     -2.535100     -0.636800
    6   C      6    1.9255  1.100      4.647270     -2.989940     -1.917830
    7   C      7    1.9255  1.100      3.557870     -2.439780     -2.607110
    8   C      8    1.9255  1.100      2.805520     -1.419380     -2.015150
    9   N      9    1.8300  1.100      5.439080     -4.055070     -2.541910
   10   O     10    1.7500  1.100      5.098580     -4.440130     -3.671000
   11   O     11    1.7500  1.100      6.402780     -4.505610     -1.907110
   12   H     12    1.4430  1.100      1.369540      1.744990     -0.190030
   13   H     13    1.4430  1.100      0.968020      0.555690     -1.427060
   14   H     14    1.4430  1.100      2.503250      1.500620     -1.528240
   15   H     15    1.4430  1.100      4.463270     -1.162010      0.943540
   16   H     16    1.4430  1.100      5.816450     -2.952190     -0.083740
   17   H     17    1.4430  1.100      3.277380     -2.796370     -3.596890
   18   H     18    1.4430  1.100      1.953100     -1.028330     -2.561420
 ------------------------------------------------------------------------------
 One-electron integrals computed using PRISM.
 NBasis=   219 RedAO= T EigKep=  2.15D-04  NBF=   219
 NBsUse=   219 1.00D-06 EigRej= -1.00D+00 NBFU=   219
 ExpMin= 1.03D-01 ExpMax= 8.59D+03 ExpMxC= 1.30D+03 IAcc=3 IRadAn=         5 AccDes= 0.00D+00
 Harris functional with IExCor=  402 and IRadAn=       5 diagonalized for initial guess.
 HarFok:  IExCor=  402 AccDes= 0.00D+00 IRadAn=         5 IDoV= 1 UseB2=F ITyADJ=14
 ICtDFT=  3500011 ScaDFX=  1.000000  1.000000  1.000000  1.000000
 FoFCou: FMM=F IPFlag=           0 FMFlag=      100000 FMFlg1=           0
         NFxFlg=           0 DoJE=T BraDBF=F KetDBF=T FulRan=T
         wScrn=  0.000000 ICntrl=       500 IOpCl=  0 I1Cent=   200000004 NGrid=           0
         NMat0=    1 NMatS0=      1 NMatT0=    0 NMatD0=    1 NMtDS0=    0 NMtDT0=    0
 Symmetry not used in FoFCou.
 Keep R1 ints in memory in canonical form, NReq=296340445.
 Requested convergence on RMS density matrix=1.00D-08 within 128 cycles.
 Requested convergence on MAX density matrix=1.00D-06.
 Requested convergence on             energy=1.00D-06.
 No special actions if energy rises.
 Inv3:  Mode=1 IEnd=     7300800.
 Iteration    1 A*A^-1 deviation from unit magnitude is 4.66D-15 for   1550.
 Iteration    1 A*A^-1 deviation from orthogonality  is 2.82D-15 for   1482    113.
 Iteration    1 A^-1*A deviation from unit magnitude is 4.44D-15 for   1550.
 Iteration    1 A^-1*A deviation from orthogonality  is 1.59D-15 for   1203   1113.
 Error on total polarization charges =  0.00832
 SCF Done:  E(RB3LYP) =  -551.415166416     A.U. after   13 cycles
            NFock= 13  Conv=0.66D-08     -V/T= 2.0036

 **********************************************************************

            Population analysis using the SCF Density.

 **********************************************************************

 Alpha  occ. eigenvalues --  -19.16775 -19.15934 -19.15869 -14.55768 -10.26203
 Alpha  occ. eigenvalues --  -10.23992 -10.22526 -10.21021 -10.20823 -10.19808
 Alpha  occ. eigenvalues --  -10.19532  -1.23006  -1.08486  -1.05890  -0.89266
 Alpha  occ. eigenvalues --   -0.81316  -0.77854  -0.73532  -0.68249  -0.64020
 Alpha  occ. eigenvalues --   -0.60001  -0.57123  -0.54095  -0.54020  -0.52961
 Alpha  occ. eigenvalues --   -0.49969  -0.48379  -0.47273  -0.45254  -0.43362
 Alpha  occ. eigenvalues --   -0.43168  -0.39965  -0.38476  -0.35827  -0.33420
 Alpha  occ. eigenvalues --   -0.32460  -0.32358  -0.30619  -0.28190  -0.25695
 Alpha virt. eigenvalues --   -0.10115  -0.03549  -0.00087   0.04471   0.06292
 Alpha virt. eigenvalues --    0.07864   0.10160   0.10830   0.11221   0.12031
 Alpha virt. eigenvalues --    0.13649   0.15273   0.15843   0.20559   0.22288
 Alpha virt. eigenvalues --    0.24185   0.24813   0.28631   0.31037   0.31967
 Alpha virt. eigenvalues --    0.33051   0.34984   0.36451   0.36569   0.37202
 Alpha virt. eigenvalues --    0.38383   0.39465   0.41915   0.42787   0.43077
 Alpha virt. eigenvalues --    0.44661   0.46485   0.47773   0.49655   0.50914
 Alpha virt. eigenvalues --    0.52394   0.54330   0.56284   0.57138   0.59155
 Alpha virt. eigenvalues --    0.59739   0.60738   0.61939   0.63045   0.63449
 Alpha virt. eigenvalues --    0.65269   0.66024   0.69524   0.70314   0.71581
 Alpha virt. eigenvalues --    0.73489   0.77483   0.77536   0.78767   0.79730
 Alpha virt. eigenvalues --    0.81451   0.81938   0.83240   0.84947   0.87741
 Alpha virt. eigenvalues --    0.88846   0.90745   0.94477   0.98138   0.98663
 Alpha virt. eigenvalues --    1.02675   1.03173   1.07397   1.09593   1.16042
 Alpha virt. eigenvalues --    1.17566   1.18081   1.18946   1.20078   1.21873
 Alpha virt. eigenvalues --    1.23515   1.31390   1.34168   1.40537   1.40989
 Alpha virt. eigenvalues --    1.43117   1.47450   1.50113   1.52598   1.54808
 Alpha virt. eigenvalues --    1.56938   1.59937   1.64358   1.65380   1.65990
 Alpha virt. eigenvalues --    1.67281   1.69892   1.73168   1.74552   1.77286
 Alpha virt. eigenvalues --    1.79542   1.85231   1.88580   1.89188   1.92191
 Alpha virt. eigenvalues --    1.92246   1.99060   2.08153   2.12982   2.13756
 Alpha virt. eigenvalues --    2.17578   2.22758   2.26057   2.26996   2.30004
 Alpha virt. eigenvalues --    2.30554   2.33877   2.35500   2.37923   2.40166
 Alpha virt. eigenvalues --    2.49879   2.51645   2.58683   2.63039   2.63177
 Alpha virt. eigenvalues --    2.65635   2.77089   2.77549   2.78026   2.79759
 Alpha virt. eigenvalues --    2.81146   2.83968   2.85437   2.86598   2.92642
 Alpha virt. eigenvalues --    2.97445   3.00065   3.08048   3.09371   3.12133
 Alpha virt. eigenvalues --    3.13676   3.17779   3.19678   3.20963   3.24846
 Alpha virt. eigenvalues --    3.26131   3.27025   3.33815   3.33890   3.34812
 Alpha virt. eigenvalues --    3.39454   3.49469   3.50876   3.59861   3.62943
 Alpha virt. eigenvalues --    3.70450   3.72238   3.80912   3.90326   3.91917
 Alpha virt. eigenvalues --    4.02708   4.39692   4.56686   4.75703   4.80293
 Alpha virt. eigenvalues --    4.81895   4.88416   4.90125   4.94329   5.19704
 Alpha virt. eigenvalues --    5.53043   5.64613   5.98284  23.19808  23.41765
 Alpha virt. eigenvalues --   23.77685  23.79107  23.97573  24.01001  24.09111
 Alpha virt. eigenvalues --   35.33464  49.79784  49.88216  49.92066
          Condensed to atoms (all electrons):
               1          2          3          4          5          6
     1  C    5.175965   0.261172  -0.091433   0.006584  -0.000393   0.000056
     2  O    0.261172   7.908931   0.381400  -0.057018   0.004090  -0.000454
     3  C   -0.091433   0.381400   4.737045   0.502246  -0.027667  -0.055768
     4  C    0.006584  -0.057018   0.502246   5.047495   0.498989  -0.034383
     5  C   -0.000393   0.004090  -0.027667   0.498989   5.072412   0.423785
     6  C    0.000056  -0.000454  -0.055768  -0.034383   0.423785   5.187749
     7  C   -0.000397   0.006074   0.012819  -0.038712  -0.083374   0.420787
     8  C   -0.014360  -0.074658   0.366659  -0.053882  -0.035196  -0.024681
     9  N   -0.000000   0.000000  -0.000262   0.003836  -0.036804   0.234167
    10  O    0.000000   0.000000   0.000086  -0.000131   0.008639  -0.146125
    11  O    0.000000   0.000000   0.000058   0.001245   0.022181  -0.144973
    12  H    0.381785  -0.020238   0.004108  -0.000464   0.000027  -0.000005
    13  H    0.375636  -0.030861  -0.013038  -0.000220   0.000050   0.000021
    14  H    0.373618  -0.035773  -0.001810   0.002339  -0.000195   0.000003
    15  H   -0.000762   0.006805  -0.052058   0.386147  -0.035041   0.006913
    16  H    0.000014  -0.000115   0.006799  -0.030323   0.380808  -0.044570
    17  H   -0.000026  -0.000060   0.004508  -0.000733   0.005467  -0.042130
    18  H    0.003474  -0.005900  -0.046232   0.004018  -0.000219   0.006264
               7          8          9         10         11         12
     1  C   -0.000397  -0.014360  -0.000000   0.000000   0.000000   0.381785
     2  O    0.006074  -0.074658   0.000000   0.000000   0.000000  -0.020238
     3  C    0.012819   0.366659  -0.000262   0.000086   0.000058   0.004108
     4  C   -0.038712  -0.053882   0.003836  -0.000131   0.001245  -0.000464
     5  C   -0.083374  -0.035196  -0.036804   0.008639   0.022181   0.000027
     6  C    0.420787  -0.024681   0.234167  -0.146125  -0.144973  -0.000005
     7  C    5.110475   0.424224  -0.037094   0.022013   0.008746   0.000043
     8  C    0.424224   5.286108   0.004165   0.001369  -0.000130   0.000897
     9  N   -0.037094   0.004165   6.050183   0.320340   0.320191  -0.000000
    10  O    0.022013   0.001369   0.320340   8.187850  -0.111323   0.000000
    11  O    0.008746  -0.000130   0.320191  -0.111323   8.186175   0.000000
    12  H    0.000043   0.000897  -0.000000   0.000000   0.000000   0.449419
    13  H   -0.000349   0.003597   0.000000   0.000000   0.000000  -0.028592
    14  H   -0.000835   0.001693   0.000000   0.000000   0.000000  -0.025638
    15  H   -0.002042   0.011590  -0.000088   0.000003  -0.000055  -0.000143
    16  H    0.006483  -0.001767  -0.008074   0.000630   0.021512  -0.000000
    17  H    0.376601  -0.025894  -0.008017   0.022744   0.000679   0.000000
    18  H   -0.029536   0.390055  -0.000122  -0.000109   0.000001  -0.000165
              13         14         15         16         17         18
     1  C    0.375636   0.373618  -0.000762   0.000014  -0.000026   0.003474
     2  O   -0.030861  -0.035773   0.006805  -0.000115  -0.000060  -0.005900
     3  C   -0.013038  -0.001810  -0.052058   0.006799   0.004508  -0.046232
     4  C   -0.000220   0.002339   0.386147  -0.030323  -0.000733   0.004018
     5  C    0.000050  -0.000195  -0.035041   0.380808   0.005467  -0.000219
     6  C    0.000021   0.000003   0.006913  -0.044570  -0.042130   0.006264
     7  C   -0.000349  -0.000835  -0.002042   0.006483   0.376601  -0.029536
     8  C    0.003597   0.001693   0.011590  -0.001767  -0.025894   0.390055
     9  N    0.000000   0.000000  -0.000088  -0.008074  -0.008017  -0.000122
    10  O    0.000000   0.000000   0.000003   0.000630   0.022744  -0.000109
    11  O    0.000000   0.000000  -0.000055   0.021512   0.000679   0.000001
    12  H   -0.028592  -0.025638  -0.000143  -0.000000   0.000000  -0.000165
    13  H    0.500750  -0.039100   0.000183  -0.000003   0.000032   0.002731
    14  H   -0.039100   0.494382   0.000176   0.000000  -0.000013   0.001113
    15  H    0.000183   0.000176   0.454716  -0.007863   0.000055  -0.000195
    16  H   -0.000003   0.000000  -0.007863   0.430518  -0.000312   0.000046
    17  H    0.000032  -0.000013   0.000055  -0.000312   0.425943  -0.006191
    18  H    0.002731   0.001113  -0.000195   0.000046  -0.006191   0.432892
 Mulliken charges:
               1
     1  C   -0.470933
     2  O   -0.343396
     3  C    0.272542
     4  C   -0.237033
     5  C   -0.197560
     6  C    0.213347
     7  C   -0.195926
     8  C   -0.259790
     9  N    0.157578
    10  O   -0.305987
    11  O   -0.304307
    12  H    0.238964
    13  H    0.229164
    14  H    0.230042
    15  H    0.231658
    16  H    0.246217
    17  H    0.247346
    18  H    0.248075
 Sum of Mulliken charges =  -0.00000
 Mulliken charges with hydrogens summed into heavy atoms:
               1
     1  C    0.227237
     2  O   -0.343396
     3  C    0.272542
     4  C   -0.005374
     5  C    0.048657
     6  C    0.213347
     7  C    0.051420
     8  C   -0.011716
     9  N    0.157578
    10  O   -0.305987
    11  O   -0.304307
 Electronic spatial extent (au):  <R**2>=           8707.3941
 Charge=             -0.0000 electrons
 Dipole moment (field-independent basis, Debye):
    X=             -4.2211    Y=              5.6834    Z=              1.3426  Tot=              7.2056
 Quadrupole moment (field-independent basis, Debye-Ang):
   XX=            -97.2483   YY=            -89.7158   ZZ=            -70.1040
   XY=             32.8525   XZ=             19.0476   YZ=            -17.8449
 Traceless Quadrupole moment (field-independent basis, Debye-Ang):
   XX=            -11.5589   YY=             -4.0264   ZZ=             15.5853
   XY=             32.8525   XZ=             19.0476   YZ=            -17.8449
 Octapole moment (field-independent basis, Debye-Ang**2):
  XXX=           -991.3720  YYY=            542.6588  ZZZ=            324.4708  XYY=           -426.4548
  XXY=            339.6881  XXZ=            230.1536  XZZ=           -311.8714  YZZ=            188.8922
  YYZ=            187.2776  XYZ=           -110.6613
 Hexadecapole moment (field-independent basis, Debye-Ang**3):
 XXXX=          -8415.1160 YYYY=          -3592.5854 ZZZZ=          -1586.9387 XXXY=           3351.0909
 XXXZ=           2094.9135 YYYX=           2914.2433 YYYZ=          -1314.7656 ZZZX=           1505.4123
 ZZZY=          -1072.9038 XXYY=          -2740.6471 XXZZ=          -1754.3945 YYZZ=          -1033.1884
 XXYZ=           -954.0234 YYXZ=            968.7819 ZZXY=           1014.6138
 N-N= 5.803522273462D+02 E-N=-2.450313925513D+03  KE= 5.494154898947D+02
 D1PCM: PCM CHGder 1st derivatives, ID1Alg=3 FixD1E=F DoIter=F DoCFld=F I1PDM=0.
 Calling FoFJK, ICntrl=      2127 FMM=F ISym2X=0 I1Cent= 0 IOpClX= 0 NMat=1 NMatS=1 NMatT=0.
 -------------------------------------------------------------------
 Center     Atomic                   Forces (Hartrees/Bohr)
 Number     Number              X              Y              Z
 -------------------------------------------------------------------
      1        6          -0.009738900    0.010142264   -0.000413126
      2        8           0.006871047   -0.005736378   -0.008458757
      3        6          -0.002347887    0.003037593    0.012137237
      4        6           0.011411435   -0.010823381   -0.001090655
      5        6          -0.004031524    0.006533149    0.007212954
      6        6          -0.003603661    0.001991411   -0.001794203
      7        6          -0.002593459    0.003279146    0.002209465
      8        6           0.001562895   -0.005782204   -0.009532860
      9        7           0.000328253   -0.000698547   -0.002183241
     10        8           0.007819170    0.002107753    0.015008004
     11        8          -0.011109860    0.002784413   -0.010688731
     12        1           0.003144954   -0.004564403    0.001349446
     13        1           0.002048255    0.000565079   -0.001000101
     14        1          -0.001545142   -0.003083305   -0.001151869
     15        1          -0.001550108   -0.000130592   -0.003429343
     16        1          -0.002767475   -0.000081026   -0.004471728
     17        1           0.003366352    0.000060101    0.004871736
     18        1           0.002735655    0.000398928    0.001425772
 -------------------------------------------------------------------
 Cartesian Forces:  Max     0.015008004 RMS     0.005643561

 GradGradGradGradGradGradGradGradGradGradGradGradGradGradGradGradGradGrad
 Berny optimization.
 FormGI is forming the generalized inverse of G from B-inverse, IUseBI=4.
 Internal  Forces:  Max     0.016462016 RMS     0.004311202
 Search for a local minimum.
 Step number   1 out of a maximum of   89
 All quantities printed in internal units (Hartrees-Bohrs-Radians)
 Mixed Optimization -- RFO/linear search
 Second derivative matrix not updated -- first step.
 ITU=  0
     Eigenvalues ---    0.00811   0.00811   0.01375   0.01698   0.02081
     Eigenvalues ---    0.02087   0.02108   0.02108   0.02112   0.02114
     Eigenvalues ---    0.02117   0.02123   0.02124   0.09945   0.10533
     Eigenvalues ---    0.15996   0.15999   0.16000   0.16000   0.16000
     Eigenvalues ---    0.16000   0.16000   0.21999   0.22979   0.23997
     Eigenvalues ---    0.24979   0.24999   0.25000   0.25000   0.25000
     Eigenvalues ---    0.34202   0.34323   0.34353   0.34951   0.35005
     Eigenvalues ---    0.35109   0.35357   0.36149   0.41592   0.41871
     Eigenvalues ---    0.41953   0.45529   0.45795   0.45896   0.46007
     Eigenvalues ---    0.51497   0.86814   0.87508
 RFO step:  Lambda=-5.02098611D-03 EMin= 8.10676064D-03
 Linear search not attempted -- first point.
 Iteration  1 RMS(Cart)=  0.08838566 RMS(Int)=  0.00507312
 Iteration  2 RMS(Cart)=  0.00679715 RMS(Int)=  0.00005748
 Iteration  3 RMS(Cart)=  0.00004190 RMS(Int)=  0.00005012
 Iteration  4 RMS(Cart)=  0.00000000 RMS(Int)=  0.00005012
 Variable       Old X    -DE/DX   Delta X   Delta X   Delta X     New X
                                 (Linear)    (Quad)   (Total)
    R1        2.69087   0.00563   0.00000   0.01328   0.01328   2.70415
    R2        2.06788  -0.00353   0.00000  -0.01013  -0.01013   2.05774
    R3        2.06738  -0.00126   0.00000  -0.00361  -0.00361   2.06377
    R4        2.06991  -0.00172   0.00000  -0.00496  -0.00496   2.06495
    R5        2.58384  -0.00712   0.00000  -0.01369  -0.01369   2.57015
    R6        2.64300   0.00345   0.00000   0.00824   0.00821   2.65121
    R7        2.64026   0.00291   0.00000   0.00706   0.00704   2.64730
    R8        2.64146  -0.01271   0.00000  -0.02735  -0.02736   2.61410
    R9        2.05666  -0.00354   0.00000  -0.00997  -0.00997   2.04669
   R10        2.64387  -0.00332   0.00000  -0.00800  -0.00798   2.63589
   R11        2.05499  -0.00438   0.00000  -0.01229  -0.01229   2.04270
   R12        2.64870  -0.00752   0.00000  -0.01721  -0.01717   2.63153
   R13        2.77149  -0.00555   0.00000  -0.01516  -0.01516   2.75633
   R14        2.64404  -0.01002   0.00000  -0.02164  -0.02163   2.62241
   R15        2.05754  -0.00532   0.00000  -0.01499  -0.01499   2.04255
   R16        2.05098  -0.00272   0.00000  -0.00759  -0.00759   2.04339
   R17        2.34437  -0.01646   0.00000  -0.01885  -0.01885   2.32552
   R18        2.34103  -0.01513   0.00000  -0.01719  -0.01719   2.32384
    A1        1.87986  -0.00600   0.00000  -0.03467  -0.03465   1.84520
    A2        1.95080   0.00127   0.00000   0.00670   0.00672   1.95753
    A3        1.93396   0.00026   0.00000   0.00081   0.00081   1.93477
    A4        1.87256   0.00294   0.00000   0.01921   0.01924   1.89181
    A5        1.88400   0.00357   0.00000   0.02361   0.02360   1.90760
    A6        1.93934  -0.00199   0.00000  -0.01500  -0.01499   1.92435
    A7        2.02217   0.01251   0.00000   0.04907   0.04907   2.07124
    A8        2.01064   0.00324   0.00000   0.01112   0.01114   2.02178
    A9        2.18328  -0.00326   0.00000  -0.01438  -0.01437   2.16891
   A10        2.08857   0.00004   0.00000   0.00368   0.00358   2.09215
   A11        2.10703  -0.00151   0.00000  -0.00460  -0.00468   2.10235
   A12        2.08613  -0.00053   0.00000  -0.00542  -0.00541   2.08073
   A13        2.08999   0.00204   0.00000   0.01011   0.01012   2.10011
   A14        2.08157  -0.00060   0.00000  -0.00402  -0.00404   2.07753
   A15        2.08010   0.00330   0.00000   0.02015   0.02013   2.10023
   A16        2.12152  -0.00269   0.00000  -0.01614  -0.01615   2.10537
   A17        2.10191   0.00432   0.00000   0.01432   0.01435   2.11627
   A18        2.09213  -0.00244   0.00000  -0.00823  -0.00825   2.08388
   A19        2.08912  -0.00188   0.00000  -0.00606  -0.00608   2.08304
   A20        2.08993  -0.00025   0.00000  -0.00235  -0.00234   2.08760
   A21        2.11615  -0.00256   0.00000  -0.01508  -0.01510   2.10105
   A22        2.07708   0.00281   0.00000   0.01747   0.01745   2.09453
   A23        2.09707  -0.00198   0.00000  -0.00655  -0.00663   2.09044
   A24        2.12335   0.00019   0.00000  -0.00141  -0.00144   2.12191
   A25        2.06251   0.00180   0.00000   0.00831   0.00829   2.07081
   A26        2.05389   0.00382   0.00000   0.01500   0.01487   2.06875
   A27        2.05564   0.00283   0.00000   0.01110   0.01097   2.06661
   A28        2.17366  -0.00664   0.00000  -0.02602  -0.02616   2.14750
    D1       -3.06438   0.00084   0.00000   0.04901   0.04898  -3.01540
    D2        1.16609   0.00025   0.00000   0.04321   0.04324   1.20932
    D3       -1.00731   0.00171   0.00000   0.05723   0.05724  -0.95007
    D4        2.68016   0.00383   0.00000   0.14603   0.14603   2.82620
    D5       -0.50205   0.00416   0.00000   0.15835   0.15834  -0.34371
    D6        3.12920  -0.00042   0.00000  -0.01340  -0.01332   3.11588
    D7       -0.02166  -0.00013   0.00000  -0.00322  -0.00323  -0.02488
    D8        0.02586  -0.00063   0.00000  -0.02453  -0.02459   0.00127
    D9       -3.12500  -0.00035   0.00000  -0.01435  -0.01449  -3.13949
   D10       -3.11958   0.00003   0.00000   0.00332   0.00337  -3.11622
   D11       -0.00234   0.00050   0.00000   0.02073   0.02073   0.01839
   D12       -0.02029   0.00044   0.00000   0.01628   0.01628  -0.00401
   D13        3.09695   0.00091   0.00000   0.03369   0.03364   3.13059
   D14       -0.01254   0.00044   0.00000   0.01737   0.01735   0.00482
   D15        3.12789   0.00020   0.00000   0.00771   0.00760   3.13549
   D16        3.13834   0.00017   0.00000   0.00725   0.00723  -3.13761
   D17       -0.00441  -0.00007   0.00000  -0.00240  -0.00253  -0.00694
   D18       -0.00633  -0.00006   0.00000  -0.00200  -0.00201  -0.00835
   D19       -3.14124  -0.00019   0.00000  -0.00852  -0.00854   3.13341
   D20        3.13645   0.00018   0.00000   0.00787   0.00775  -3.13899
   D21        0.00154   0.00005   0.00000   0.00134   0.00122   0.00276
   D22        0.01173  -0.00012   0.00000  -0.00600  -0.00608   0.00565
   D23       -3.12170  -0.00025   0.00000  -0.01016  -0.01016  -3.13186
   D24       -3.13653   0.00001   0.00000   0.00050   0.00043  -3.13610
   D25        0.01321  -0.00012   0.00000  -0.00365  -0.00364   0.00957
   D26        3.12448  -0.00004   0.00000  -0.00548  -0.00551   3.11896
   D27       -0.01999   0.00035   0.00000   0.02385   0.02381   0.00382
   D28       -0.01048  -0.00019   0.00000  -0.01203  -0.01199  -0.02247
   D29        3.12824   0.00019   0.00000   0.01729   0.01733  -3.13762
   D30        0.00168  -0.00003   0.00000  -0.00111  -0.00109   0.00059
   D31       -3.11640  -0.00047   0.00000  -0.01779  -0.01782  -3.13421
   D32        3.13530   0.00007   0.00000   0.00279   0.00282   3.13812
   D33        0.01722  -0.00037   0.00000  -0.01389  -0.01391   0.00332
         Item               Value     Threshold  Converged?
 Maximum Force            0.016462     0.000450     NO 
 RMS     Force            0.004311     0.000300     NO 
 Maximum Displacement     0.353141     0.001800     NO 
 RMS     Displacement     0.090132     0.001200     NO 
 Predicted change in Energy=-2.688018D-03
 GradGradGradGradGradGradGradGradGradGradGradGradGradGradGradGradGradGrad

                          Input orientation:                          
 ---------------------------------------------------------------------
 Center     Atomic      Atomic             Coordinates (Angstroms)
 Number     Number       Type             X           Y           Z
 ---------------------------------------------------------------------
      1          6           0        1.729843    0.977594   -0.857680
      2          8           0        2.532432    0.066342   -0.100611
      3          6           0        3.199062   -0.918962   -0.759823
      4          6           0        4.253276   -1.520510   -0.056214
      5          6           0        4.976105   -2.553937   -0.624661
      6          6           0        4.645219   -2.984886   -1.909345
      7          6           0        3.599269   -2.401694   -2.620018
      8          6           0        2.873414   -1.367322   -2.046455
      9          7           0        5.408813   -4.067035   -2.520375
     10          8           0        5.087858   -4.450937   -3.644656
     11          8           0        6.326003   -4.572398   -1.875712
     12          1           0        1.406427    1.741836   -0.152653
     13          1           0        0.842813    0.496345   -1.275126
     14          1           0        2.316376    1.444618   -1.652611
     15          1           0        4.494684   -1.166816    0.938597
     16          1           0        5.791603   -3.012241   -0.083024
     17          1           0        3.349201   -2.752768   -3.611226
     18          1           0        2.060073   -0.930430   -2.609348
 ---------------------------------------------------------------------
                    Distance matrix (angstroms):
                    1          2          3          4          5
     1  C    0.000000
     2  O    1.430973   0.000000
     3  C    2.401064   1.360067   0.000000
     4  C    3.640136   2.341234   1.402958   0.000000
     5  C    4.802523   3.621053   2.418531   1.383323   0.000000
     6  C    5.030573   4.128605   2.771428   2.394182   1.394853
     7  C    4.245018   3.684665   2.412257   2.788781   2.429054
     8  C    2.866980   2.440896   1.400891   2.426632   2.801939
     9  N    6.461243   5.586917   4.230001   3.727216   2.463825
    10  O    6.965088   6.284606   4.936057   4.707530   3.568118
    11  O    7.277602   6.249806   4.936655   4.113489   2.731582
    12  H    1.088911   2.019375   3.265278   4.330907   5.605270
    13  H    1.092100   2.102189   2.796524   4.145445   5.177975
    14  H    1.092724   2.086870   2.676325   3.884849   4.911138
    15  H    3.933123   2.539895   2.150511   1.083063   2.144678
    16  H    5.746022   4.483323   3.400168   2.142996   1.080949
    17  H    4.911205   4.575905   3.393506   3.869614   3.406746
    18  H    2.611120   2.740518   2.172135   3.417137   3.883039
                    6          7          8          9         10
     6  C    0.000000
     7  C    1.392545   0.000000
     8  C    2.403041   1.387719   0.000000
     9  N    1.458589   2.461248   3.733805   0.000000
    10  O    2.314420   2.732248   4.119064   1.230610   0.000000
    11  O    2.312220   3.563850   4.714025   1.229723   2.162618
    12  H    5.993133   5.297668   3.924972   7.440980   8.006089
    13  H    5.194179   4.219646   2.862088   6.574454   6.936186
    14  H    5.010981   4.168430   2.893512   6.379225   6.812263
    15  H    3.382131   3.871747   3.402830   4.605582   5.669524
    16  H    2.156477   3.408143   3.882866   2.683244   3.905167
    17  H    2.151729   1.080870   2.143441   2.675679   2.430601
    18  H    3.375466   2.129285   1.081317   4.589147   4.757448
                   11         12         13         14         15
    11  O    0.000000
    12  H    8.187839   0.000000
    13  H    7.491211   1.768856   0.000000
    14  H    7.234042   1.779387   1.792513   0.000000
    15  H    4.782473   4.380458   4.582885   4.275391   0.000000
    16  H    2.435858   6.468065   6.182379   5.865527   2.476146
    17  H    3.896718   5.994794   4.721873   4.745624   4.952601
    18  H    5.656881   3.688307   2.301643   2.573304   4.309422
                   16         17         18
    16  H    0.000000
    17  H    4.298937   0.000000
    18  H    4.963926   2.446737   0.000000
 Symmetry turned off by external request.
 Stoichiometry    C7H7NO3
 Framework group  C1[X(C7H7NO3)]
 Deg. of freedom    48
 Full point group                 C1      NOp   1
 Rotational constants (GHZ):           3.5479906           0.5822864           0.5031139
 Standard basis: 6-311G(d) (5D, 7F)
   219 basis functions,   387 primitive gaussians,   230 cartesian basis functions
    40 alpha electrons       40 beta electrons
       nuclear repulsion energy       582.3522628697 Hartrees.
 NAtoms=   18 NActive=   18 NUniq=   18 SFac= 1.00D+00 NAtFMM=   60 NAOKFM=F Big=F
 Integral buffers will be    131072 words long.
 Raffenetti 2 integral format.
 Two-electron integral symmetry is turned off.
 ------------------------------------------------------------------------------
 Polarizable Continuum Model (PCM)
 =================================
 Model                : PCM.
 Atomic radii         : UFF (Universal Force Field).
 Polarization charges : Total charges.
 Charge compensation  : None.
 Solution method      : On-the-fly selection.
 Cavity type          : Scaled VdW (van der Waals Surface) (Alpha=1.100).
 Cavity algorithm     : GePol (No added spheres)
                        Default sphere list used, NSphG=   18.
                        Lebedev-Laikov grids with approx.  5.0 points / Ang**2.
                        Smoothing algorithm: York/Karplus (Gamma=1.0000).
                        Polarization charges: spherical gaussians, with
                                              point-specific exponents (IZeta= 3).
                        Self-potential: point-specific (ISelfS= 7).
                        Self-field    : sphere-specific E.n sum rule (ISelfD= 2).
 1st derivatives      : Analytical E(r).r(x)/FMM algorithm (CHGder, D1EAlg=3).
                        Cavity 1st derivative terms included.
 Solvent              : Water, Eps=  78.355300 Eps(inf)=   1.777849
 ------------------------------------------------------------------------------
 Spheres list:
 ISph  on   Nord     Re0    Alpha      Xe            Ye            Ze
    1   C      1    1.9255  1.100      1.729843      0.977594     -0.857680
    2   O      2    1.7500  1.100      2.532432      0.066342     -0.100611
    3   C      3    1.9255  1.100      3.199062     -0.918962     -0.759823
    4   C      4    1.9255  1.100      4.253276     -1.520510     -0.056214
    5   C      5    1.9255  1.100      4.976105     -2.553937     -0.624661
    6   C      6    1.9255  1.100      4.645219     -2.984886     -1.909345
    7   C      7    1.9255  1.100      3.599269     -2.401694     -2.620018
    8   C      8    1.9255  1.100      2.873414     -1.367322     -2.046455
    9   N      9    1.8300  1.100      5.408813     -4.067035     -2.520375
   10   O     10    1.7500  1.100      5.087858     -4.450937     -3.644656
   11   O     11    1.7500  1.100      6.326003     -4.572398     -1.875712
   12   H     12    1.4430  1.100      1.406427      1.741836     -0.152653
   13   H     13    1.4430  1.100      0.842813      0.496345     -1.275126
   14   H     14    1.4430  1.100      2.316376      1.444618     -1.652611
   15   H     15    1.4430  1.100      4.494684     -1.166816      0.938597
   16   H     16    1.4430  1.100      5.791603     -3.012241     -0.083024
   17   H     17    1.4430  1.100      3.349201     -2.752768     -3.611226
   18   H     18    1.4430  1.100      2.060073     -0.930430     -2.609348
 ------------------------------------------------------------------------------
 One-electron integrals computed using PRISM.
 NBasis=   219 RedAO= T EigKep=  2.09D-04  NBF=   219
 NBsUse=   219 1.00D-06 EigRej= -1.00D+00 NBFU=   219
 Initial guess from the checkpoint file:  "ground_state_opt.chk"
 B after Tr=     0.042116    0.098996   -0.045826
         Rot=    0.999979    0.001163    0.002510    0.005895 Ang=   0.75 deg.
 ExpMin= 1.03D-01 ExpMax= 8.59D+03 ExpMxC= 1.30D+03 IAcc=3 IRadAn=         5 AccDes= 0.00D+00
 Harris functional with IExCor=  402 and IRadAn=       5 diagonalized for initial guess.
 HarFok:  IExCor=  402 AccDes= 0.00D+00 IRadAn=         5 IDoV= 1 UseB2=F ITyADJ=14
 ICtDFT=  3500011 ScaDFX=  1.000000  1.000000  1.000000  1.000000
 FoFCou: FMM=F IPFlag=           0 FMFlag=      100000 FMFlg1=           0
         NFxFlg=           0 DoJE=T BraDBF=F KetDBF=T FulRan=T
         wScrn=  0.000000 ICntrl=       500 IOpCl=  0 I1Cent=   200000004 NGrid=           0
         NMat0=    1 NMatS0=      1 NMatT0=    0 NMatD0=    1 NMtDS0=    0 NMtDT0=    0
 Symmetry not used in FoFCou.
 Keep R1 ints in memory in canonical form, NReq=296340445.
 Requested convergence on RMS density matrix=1.00D-08 within 128 cycles.
 Requested convergence on MAX density matrix=1.00D-06.
 Requested convergence on             energy=1.00D-06.
 No special actions if energy rises.
 Inv3:  Mode=1 IEnd=     7310163.
 Iteration    1 A*A^-1 deviation from unit magnitude is 6.00D-15 for    754.
 Iteration    1 A*A^-1 deviation from orthogonality  is 2.66D-15 for   1561    376.
 Iteration    1 A^-1*A deviation from unit magnitude is 5.77D-15 for    754.
 Iteration    1 A^-1*A deviation from orthogonality  is 7.68D-15 for   1559   1450.
 Error on total polarization charges =  0.00832
 SCF Done:  E(RB3LYP) =  -551.418310597     A.U. after   12 cycles
            NFock= 12  Conv=0.45D-08     -V/T= 2.0033
 D1PCM: PCM CHGder 1st derivatives, ID1Alg=3 FixD1E=F DoIter=F DoCFld=F I1PDM=0.
 Calling FoFJK, ICntrl=      2127 FMM=F ISym2X=0 I1Cent= 0 IOpClX= 0 NMat=1 NMatS=1 NMatT=0.
 -------------------------------------------------------------------
 Center     Atomic                   Forces (Hartrees/Bohr)
 Number     Number              X              Y              Z
 -------------------------------------------------------------------
      1        6          -0.003037817    0.002571685    0.000851674
      2        8           0.006232942   -0.004038034   -0.004393179
      3        6          -0.005671943    0.005141612    0.005201705
      4        6           0.001724848   -0.002819143    0.001035947
      5        6          -0.000573575    0.002928223    0.002403004
      6        6           0.000906583   -0.001209590   -0.002509034
      7        6          -0.000589845    0.001083381    0.000175211
      8        6           0.000461236   -0.000056848   -0.002419627
      9        7          -0.001694121   -0.004753060    0.000030971
     10        8           0.000040453    0.002336540    0.000094915
     11        8           0.000639718    0.001899458    0.000614502
     12        1           0.001022103   -0.000729094    0.000086636
     13        1           0.000645283   -0.001593845   -0.000451619
     14        1          -0.000255432   -0.000941687   -0.000415415
     15        1          -0.000661335    0.000723177    0.000097463
     16        1           0.000265121   -0.000798780   -0.000828659
     17        1           0.000776001   -0.000774039   -0.000230457
     18        1          -0.000230222    0.001030044    0.000655962
 -------------------------------------------------------------------
 Cartesian Forces:  Max     0.006232942 RMS     0.002219127

 GradGradGradGradGradGradGradGradGradGradGradGradGradGradGradGradGradGrad
 Berny optimization.
 Using GEDIIS/GDIIS optimizer.
 FormGI is forming the generalized inverse of G from B-inverse, IUseBI=4.
 Internal  Forces:  Max     0.007785114 RMS     0.001288817
 Search for a local minimum.
 Step number   2 out of a maximum of   89
 All quantities printed in internal units (Hartrees-Bohrs-Radians)
 Mixed Optimization -- RFO/linear search
 Update second derivatives using D2CorX and points    1    2
 DE= -3.14D-03 DEPred=-2.69D-03 R= 1.17D+00
 TightC=F SS=  1.41D+00  RLast= 2.66D-01 DXNew= 5.0454D-01 7.9733D-01
 Trust test= 1.17D+00 RLast= 2.66D-01 DXMaxT set to 5.05D-01
 ITU=  1  0
 Use linear search instead of GDIIS.
     Eigenvalues ---    0.00782   0.00813   0.01389   0.01624   0.01707
     Eigenvalues ---    0.02081   0.02088   0.02108   0.02110   0.02112
     Eigenvalues ---    0.02114   0.02120   0.02142   0.09852   0.10676
     Eigenvalues ---    0.14983   0.15999   0.16000   0.16000   0.16000
     Eigenvalues ---    0.16000   0.16378   0.22004   0.22975   0.23930
     Eigenvalues ---    0.24720   0.24994   0.25000   0.25000   0.27515
     Eigenvalues ---    0.34183   0.34256   0.34373   0.34984   0.35059
     Eigenvalues ---    0.35262   0.35562   0.36190   0.41643   0.41798
     Eigenvalues ---    0.41963   0.44868   0.45534   0.45961   0.46931
     Eigenvalues ---    0.52745   0.87016   0.89844
 RFO step:  Lambda=-2.56739798D-03 EMin= 7.81524329D-03
 Quartic linear search produced a step of  0.27012.
 Iteration  1 RMS(Cart)=  0.10021775 RMS(Int)=  0.00951926
 Iteration  2 RMS(Cart)=  0.01487070 RMS(Int)=  0.00342598
 Iteration  3 RMS(Cart)=  0.00019633 RMS(Int)=  0.00342404
 Iteration  4 RMS(Cart)=  0.00000047 RMS(Int)=  0.00342404
 Variable       Old X    -DE/DX   Delta X   Delta X   Delta X     New X
                                 (Linear)    (Quad)   (Total)
    R1        2.70415   0.00044   0.00359   0.00438   0.00796   2.71211
    R2        2.05774  -0.00076  -0.00274  -0.00505  -0.00779   2.04995
    R3        2.06377   0.00035  -0.00098   0.00042  -0.00055   2.06322
    R4        2.06495  -0.00023  -0.00134  -0.00198  -0.00332   2.06163
    R5        2.57015  -0.00779  -0.00370  -0.02178  -0.02548   2.54467
    R6        2.65121   0.00141   0.00222   0.00570   0.00790   2.65911
    R7        2.64730   0.00132   0.00190   0.00521   0.00710   2.65440
    R8        2.61410  -0.00088  -0.00739  -0.00876  -0.01615   2.59795
    R9        2.04669   0.00018  -0.00269  -0.00167  -0.00436   2.04233
   R10        2.63589   0.00202  -0.00216   0.00353   0.00139   2.63728
   R11        2.04270   0.00012  -0.00332  -0.00240  -0.00572   2.03698
   R12        2.63153   0.00028  -0.00464  -0.00326  -0.00789   2.62364
   R13        2.75633  -0.00046  -0.00409  -0.00506  -0.00915   2.74718
   R14        2.62241   0.00033  -0.00584  -0.00412  -0.00996   2.61245
   R15        2.04255   0.00028  -0.00405  -0.00247  -0.00652   2.03603
   R16        2.04339   0.00025  -0.00205  -0.00089  -0.00294   2.04045
   R17        2.32552  -0.00083  -0.00509  -0.00563  -0.01073   2.31479
   R18        2.32384   0.00002  -0.00464  -0.00404  -0.00868   2.31516
    A1        1.84520  -0.00049  -0.00936  -0.00903  -0.01843   1.82677
    A2        1.95753  -0.00209   0.00182  -0.01574  -0.01402   1.94351
    A3        1.93477   0.00005   0.00022  -0.00063  -0.00048   1.93429
    A4        1.89181   0.00177   0.00520   0.01977   0.02491   1.91671
    A5        1.90760   0.00098   0.00638   0.01515   0.02151   1.92911
    A6        1.92435  -0.00009  -0.00405  -0.00797  -0.01214   1.91221
    A7        2.07124  -0.00042   0.01325   0.00907   0.02233   2.09357
    A8        2.02178   0.00044   0.00301   0.00468   0.00766   2.02944
    A9        2.16891  -0.00090  -0.00388  -0.00767  -0.01159   2.15732
   A10        2.09215   0.00047   0.00097   0.00336   0.00423   2.09639
   A11        2.10235  -0.00058  -0.00126  -0.00426  -0.00557   2.09678
   A12        2.08073  -0.00070  -0.00146  -0.00712  -0.00857   2.07216
   A13        2.10011   0.00128   0.00273   0.01138   0.01412   2.11423
   A14        2.07753   0.00038  -0.00109   0.00111  -0.00000   2.07753
   A15        2.10023   0.00101   0.00544   0.01256   0.01800   2.11823
   A16        2.10537  -0.00139  -0.00436  -0.01361  -0.01797   2.08740
   A17        2.11627   0.00006   0.00388   0.00348   0.00735   2.12362
   A18        2.08388  -0.00010  -0.00223  -0.00230  -0.00454   2.07934
   A19        2.08304   0.00003  -0.00164  -0.00118  -0.00283   2.08021
   A20        2.08760  -0.00010  -0.00063  -0.00103  -0.00167   2.08592
   A21        2.10105  -0.00105  -0.00408  -0.01146  -0.01553   2.08552
   A22        2.09453   0.00116   0.00471   0.01248   0.01720   2.11173
   A23        2.09044  -0.00023  -0.00179  -0.00256  -0.00441   2.08603
   A24        2.12191  -0.00109  -0.00039  -0.00895  -0.00936   2.11256
   A25        2.07081   0.00132   0.00224   0.01156   0.01378   2.08459
   A26        2.06875  -0.00119   0.00402   0.00029  -0.01271   2.05604
   A27        2.06661  -0.00114   0.00296  -0.00039  -0.01444   2.05217
   A28        2.14750   0.00240  -0.00707   0.00855  -0.01645   2.13104
    D1       -3.01540   0.00019   0.01323   0.01971   0.03298  -2.98242
    D2        1.20932  -0.00052   0.01168   0.00982   0.02154   1.23086
    D3       -0.95007   0.00109   0.01546   0.03217   0.04755  -0.90251
    D4        2.82620   0.00296   0.03945   0.16798   0.20746   3.03366
    D5       -0.34371   0.00324   0.04277   0.18327   0.22600  -0.11772
    D6        3.11588   0.00010  -0.00360   0.00465   0.00116   3.11704
    D7       -0.02488   0.00011  -0.00087   0.00580   0.00500  -0.01989
    D8        0.00127  -0.00014  -0.00664  -0.00973  -0.01640  -0.01513
    D9       -3.13949  -0.00014  -0.00391  -0.00858  -0.01257   3.13113
   D10       -3.11622  -0.00013   0.00091  -0.00591  -0.00488  -3.12110
   D11        0.01839  -0.00001   0.00560   0.00171   0.00732   0.02571
   D12       -0.00401   0.00016   0.00440   0.00997   0.01436   0.01035
   D13        3.13059   0.00028   0.00909   0.01759   0.02657  -3.12602
   D14        0.00482  -0.00006   0.00469  -0.00124   0.00348   0.00830
   D15        3.13549   0.00008   0.00205   0.00502   0.00710  -3.14059
   D16       -3.13761  -0.00006   0.00195  -0.00241  -0.00046  -3.13808
   D17       -0.00694   0.00007  -0.00068   0.00385   0.00316  -0.00378
   D18       -0.00835   0.00023  -0.00054   0.01213   0.01158   0.00323
   D19        3.13341   0.00015  -0.00231   0.00657   0.00423   3.13764
   D20       -3.13899   0.00008   0.00209   0.00568   0.00779  -3.13120
   D21        0.00276   0.00000   0.00033   0.00012   0.00045   0.00321
   D22        0.00565  -0.00021  -0.00164  -0.01191  -0.01359  -0.00794
   D23       -3.13186  -0.00018  -0.00274  -0.01049  -0.01326   3.13806
   D24       -3.13610  -0.00013   0.00012  -0.00636  -0.00625   3.14084
   D25        0.00957  -0.00010  -0.00098  -0.00494  -0.00592   0.00365
   D26        3.11896   0.00159  -0.00149   0.18178   0.17776  -2.98646
   D27        0.00382  -0.00140   0.00643  -0.16475  -0.15582  -0.15201
   D28       -0.02247   0.00151  -0.00324   0.17633   0.17060   0.14813
   D29       -3.13762  -0.00148   0.00468  -0.17019  -0.16298   2.98258
   D30        0.00059   0.00001  -0.00029   0.00069   0.00042   0.00101
   D31       -3.13421  -0.00010  -0.00481  -0.00663  -0.01150   3.13748
   D32        3.13812  -0.00003   0.00076  -0.00078   0.00001   3.13813
   D33        0.00332  -0.00013  -0.00376  -0.00810  -0.01191  -0.00859
         Item               Value     Threshold  Converged?
 Maximum Force            0.007785     0.000450     NO 
 RMS     Force            0.001289     0.000300     NO 
 Maximum Displacement     0.394287     0.001800     NO 
 RMS     Displacement     0.108915     0.001200     NO 
 Predicted change in Energy=-1.700228D-03
 GradGradGradGradGradGradGradGradGradGradGradGradGradGradGradGradGradGrad

                          Input orientation:                          
 ---------------------------------------------------------------------
 Center     Atomic      Atomic             Coordinates (Angstroms)
 Number     Number       Type             X           Y           Z
 ---------------------------------------------------------------------
      1          6           0        1.684580    0.943934   -0.859210
      2          8           0        2.639000    0.142183   -0.147845
      3          6           0        3.263219   -0.873612   -0.773779
      4          6           0        4.279088   -1.522520   -0.047850
      5          6           0        4.948540   -2.588842   -0.599935
      6          6           0        4.611582   -3.006648   -1.888174
      7          6           0        3.621746   -2.370685   -2.625292
      8          6           0        2.941769   -1.301476   -2.072487
      9          7           0        5.321468   -4.130845   -2.476071
     10          8           0        5.126755   -4.372999   -3.660940
     11          8           0        6.298939   -4.561064   -1.875734
     12          1           0        1.466268    1.769393   -0.190089
     13          1           0        0.770645    0.383750   -1.066478
     14          1           0        2.107783    1.311692   -1.795085
     15          1           0        4.514668   -1.168563    0.945752
     16          1           0        5.729259   -3.100935   -0.061277
     17          1           0        3.392325   -2.720606   -3.618146
     18          1           0        2.174836   -0.805356   -2.648299
 ---------------------------------------------------------------------
                    Distance matrix (angstroms):
                    1          2          3          4          5
     1  C    0.000000
     2  O    1.435187   0.000000
     3  C    2.408915   1.346582   0.000000
     4  C    3.670582   2.339044   1.407141   0.000000
     5  C    4.816759   3.605116   2.410922   1.374775   0.000000
     6  C    5.023266   4.103044   2.758587   2.387464   1.395587
     7  C    4.225915   3.663065   2.407876   2.791897   2.431058
     8  C    2.845071   2.424885   1.404649   2.436481   2.802294
     9  N    6.449386   5.556532   4.212334   3.712974   2.456977
    10  O    6.925896   6.238400   4.904505   4.679550   3.547496
    11  O    7.254697   6.204941   4.901755   4.080895   2.709409
    12  H    1.084789   2.006214   3.248877   4.332307   5.593604
    13  H    1.091807   2.095946   2.807055   4.120758   5.148667
    14  H    1.090966   2.088861   2.674631   3.974941   4.971162
    15  H    3.966098   2.536167   2.147070   1.080754   2.143498
    16  H    5.775560   4.480515   3.398526   2.143494   1.077921
    17  H    4.894586   4.561365   3.393888   3.868950   3.398347
    18  H    2.549746   2.713955   2.168654   3.421190   3.882016
                    6          7          8          9         10
     6  C    0.000000
     7  C    1.388368   0.000000
     8  C    2.393713   1.382451   0.000000
     9  N    1.453747   2.451425   3.719030   0.000000
    10  O    2.296740   2.710513   4.090428   1.224934   0.000000
    11  O    2.294240   3.539345   4.683398   1.225130   2.143908
    12  H    5.965489   5.264650   3.892398   7.409527   7.948267
    13  H    5.188717   4.259764   2.926742   6.563422   6.952236
    14  H    4.992568   4.067091   2.757014   6.357100   6.701591
    15  H    3.379214   3.872307   3.406090   4.597273   5.644880
    16  H    2.143746   3.398389   3.879835   2.656735   3.865065
    17  H    2.135699   1.077422   2.146158   2.648528   2.395930
    18  H    3.370639   2.131744   1.079759   4.581466   4.739973
                   11         12         13         14         15
    11  O    0.000000
    12  H    8.140687   0.000000
    13  H    7.461107   1.780998   0.000000
    14  H    7.215369   1.788028   1.783222   0.000000
    15  H    4.759566   4.383431   4.525092   4.411003   0.000000
    16  H    2.397659   6.473776   6.143396   5.965941   2.494674
    17  H    3.856383   5.968363   4.798046   4.607931   4.949511
    18  H    5.631201   3.629628   2.426497   2.283498   4.303945
                   16         17         18
    16  H    0.000000
    17  H    4.272848   0.000000
    18  H    4.959465   2.468008   0.000000
 Symmetry turned off by external request.
 Stoichiometry    C7H7NO3
 Framework group  C1[X(C7H7NO3)]
 Deg. of freedom    48
 Full point group                 C1      NOp   1
 Rotational constants (GHZ):           3.5510525           0.5889196           0.5073495
 Standard basis: 6-311G(d) (5D, 7F)
   219 basis functions,   387 primitive gaussians,   230 cartesian basis functions
    40 alpha electrons       40 beta electrons
       nuclear repulsion energy       584.4828520941 Hartrees.
 NAtoms=   18 NActive=   18 NUniq=   18 SFac= 1.00D+00 NAtFMM=   60 NAOKFM=F Big=F
 Integral buffers will be    131072 words long.
 Raffenetti 2 integral format.
 Two-electron integral symmetry is turned off.
 ------------------------------------------------------------------------------
 Polarizable Continuum Model (PCM)
 =================================
 Model                : PCM.
 Atomic radii         : UFF (Universal Force Field).
 Polarization charges : Total charges.
 Charge compensation  : None.
 Solution method      : On-the-fly selection.
 Cavity type          : Scaled VdW (van der Waals Surface) (Alpha=1.100).
 Cavity algorithm     : GePol (No added spheres)
                        Default sphere list used, NSphG=   18.
                        Lebedev-Laikov grids with approx.  5.0 points / Ang**2.
                        Smoothing algorithm: York/Karplus (Gamma=1.0000).
                        Polarization charges: spherical gaussians, with
                                              point-specific exponents (IZeta= 3).
                        Self-potential: point-specific (ISelfS= 7).
                        Self-field    : sphere-specific E.n sum rule (ISelfD= 2).
 1st derivatives      : Analytical E(r).r(x)/FMM algorithm (CHGder, D1EAlg=3).
                        Cavity 1st derivative terms included.
 Solvent              : Water, Eps=  78.355300 Eps(inf)=   1.777849
 ------------------------------------------------------------------------------
 Spheres list:
 ISph  on   Nord     Re0    Alpha      Xe            Ye            Ze
    1   C      1    1.9255  1.100      1.684580      0.943934     -0.859210
    2   O      2    1.7500  1.100      2.639000      0.142183     -0.147845
    3   C      3    1.9255  1.100      3.263219     -0.873612     -0.773779
    4   C      4    1.9255  1.100      4.279088     -1.522520     -0.047850
    5   C      5    1.9255  1.100      4.948540     -2.588842     -0.599935
    6   C      6    1.9255  1.100      4.611582     -3.006648     -1.888174
    7   C      7    1.9255  1.100      3.621746     -2.370685     -2.625292
    8   C      8    1.9255  1.100      2.941769     -1.301476     -2.072487
    9   N      9    1.8300  1.100      5.321468     -4.130845     -2.476071
   10   O     10    1.7500  1.100      5.126755     -4.372999     -3.660940
   11   O     11    1.7500  1.100      6.298939     -4.561064     -1.875734
   12   H     12    1.4430  1.100      1.466268      1.769393     -0.190089
   13   H     13    1.4430  1.100      0.770645      0.383750     -1.066478
   14   H     14    1.4430  1.100      2.107783      1.311692     -1.795085
   15   H     15    1.4430  1.100      4.514668     -1.168563      0.945752
   16   H     16    1.4430  1.100      5.729259     -3.100935     -0.061277
   17   H     17    1.4430  1.100      3.392325     -2.720606     -3.618146
   18   H     18    1.4430  1.100      2.174836     -0.805356     -2.648299
 ------------------------------------------------------------------------------
 One-electron integrals computed using PRISM.
 NBasis=   219 RedAO= T EigKep=  2.09D-04  NBF=   219
 NBsUse=   219 1.00D-06 EigRej= -1.00D+00 NBFU=   219
 Initial guess from the checkpoint file:  "ground_state_opt.chk"
 B after Tr=     0.038503    0.097261   -0.045775
         Rot=    0.999979   -0.001348    0.003515    0.005341 Ang=  -0.75 deg.
 ExpMin= 1.03D-01 ExpMax= 8.59D+03 ExpMxC= 1.30D+03 IAcc=3 IRadAn=         5 AccDes= 0.00D+00
 Harris functional with IExCor=  402 and IRadAn=       5 diagonalized for initial guess.
 HarFok:  IExCor=  402 AccDes= 0.00D+00 IRadAn=         5 IDoV= 1 UseB2=F ITyADJ=14
 ICtDFT=  3500011 ScaDFX=  1.000000  1.000000  1.000000  1.000000
 FoFCou: FMM=F IPFlag=           0 FMFlag=      100000 FMFlg1=           0
         NFxFlg=           0 DoJE=T BraDBF=F KetDBF=T FulRan=T
         wScrn=  0.000000 ICntrl=       500 IOpCl=  0 I1Cent=   200000004 NGrid=           0
         NMat0=    1 NMatS0=      1 NMatT0=    0 NMatD0=    1 NMtDS0=    0 NMtDT0=    0
 Symmetry not used in FoFCou.
 Keep R1 ints in memory in canonical form, NReq=296340445.
 Requested convergence on RMS density matrix=1.00D-08 within 128 cycles.
 Requested convergence on MAX density matrix=1.00D-06.
 Requested convergence on             energy=1.00D-06.
 No special actions if energy rises.
 Inv3:  Mode=1 IEnd=     7059468.
 Iteration    1 A*A^-1 deviation from unit magnitude is 3.33D-15 for   1508.
 Iteration    1 A*A^-1 deviation from orthogonality  is 1.66D-15 for   1352   1122.
 Iteration    1 A^-1*A deviation from unit magnitude is 3.55D-15 for   1508.
 Iteration    1 A^-1*A deviation from orthogonality  is 8.56D-15 for   1473   1431.
 Error on total polarization charges =  0.00828
 SCF Done:  E(RB3LYP) =  -551.413391165     A.U. after   14 cycles
            NFock= 14  Conv=0.30D-08     -V/T= 2.0030
 D1PCM: PCM CHGder 1st derivatives, ID1Alg=3 FixD1E=F DoIter=F DoCFld=F I1PDM=0.
 Calling FoFJK, ICntrl=      2127 FMM=F ISym2X=0 I1Cent= 0 IOpClX= 0 NMat=1 NMatS=1 NMatT=0.
 -------------------------------------------------------------------
 Center     Atomic                   Forces (Hartrees/Bohr)
 Number     Number              X              Y              Z
 -------------------------------------------------------------------
      1        6           0.001732570   -0.002862567    0.000473836
      2        8           0.002302596    0.000989595    0.001485239
      3        6          -0.004404246    0.001437349   -0.001925509
      4        6          -0.003330464    0.003498115    0.000796220
      5        6          -0.000475726   -0.002664280   -0.001024424
      6        6          -0.007036077   -0.006777295    0.004987376
      7        6          -0.001033796   -0.002195411    0.000415837
      8        6           0.000720002    0.002709392    0.002176241
      9        7           0.029225548    0.034036620   -0.015237094
     10        8          -0.014975265   -0.013913807   -0.006603021
     11        8          -0.001355931   -0.016208732    0.013956746
     12        1          -0.001115989    0.001766418   -0.000530793
     13        1          -0.000115502   -0.001150027    0.000427002
     14        1           0.000301596    0.001894426    0.000214273
     15        1           0.000403375    0.000704278    0.001682850
     16        1           0.001372019   -0.000822870    0.001750681
     17        1          -0.001158925   -0.000477296   -0.002566418
     18        1          -0.001055785    0.000036093   -0.000479042
 -------------------------------------------------------------------
 Cartesian Forces:  Max     0.034036620 RMS     0.007947154

 GradGradGradGradGradGradGradGradGradGradGradGradGradGradGradGradGradGrad
 Berny optimization.
 Using GEDIIS/GDIIS optimizer.
 FormGI is forming the generalized inverse of G from B-inverse, IUseBI=4.
 Internal  Forces:  Max     0.018556902 RMS     0.004835460
 Search for a local minimum.
 Step number   3 out of a maximum of   89
 All quantities printed in internal units (Hartrees-Bohrs-Radians)
 Mixed Optimization -- RFO/linear search
 Update second derivatives using D2CorX and points    1    3    2
 DE=  4.92D-03 DEPred=-1.70D-03 R=-2.89D+00
 Trust test=-2.89D+00 RLast= 4.68D-01 DXMaxT set to 2.52D-01
 ITU= -1  1  0
 Use linear search instead of GDIIS.
     Eigenvalues ---    0.00808   0.00985   0.01400   0.01707   0.02080
     Eigenvalues ---    0.02087   0.02108   0.02109   0.02112   0.02114
     Eigenvalues ---    0.02119   0.02136   0.09716   0.10721   0.10927
     Eigenvalues ---    0.14718   0.16000   0.16000   0.16000   0.16000
     Eigenvalues ---    0.16030   0.16375   0.21998   0.22963   0.24103
     Eigenvalues ---    0.24864   0.24999   0.25000   0.25100   0.27571
     Eigenvalues ---    0.34176   0.34250   0.34373   0.34984   0.35058
     Eigenvalues ---    0.35268   0.35554   0.36525   0.41664   0.41715
     Eigenvalues ---    0.41943   0.44512   0.45536   0.45961   0.47179
     Eigenvalues ---    0.51108   0.87073   0.91484
 RFO step:  Lambda=-2.25782450D-03 EMin= 8.08293457D-03
 Quartic linear search produced a step of -0.80667.
 Iteration  1 RMS(Cart)=  0.06645460 RMS(Int)=  0.00540096
 Iteration  2 RMS(Cart)=  0.00589507 RMS(Int)=  0.00070723
 Iteration  3 RMS(Cart)=  0.00004899 RMS(Int)=  0.00070607
 Iteration  4 RMS(Cart)=  0.00000003 RMS(Int)=  0.00070607
 Variable       Old X    -DE/DX   Delta X   Delta X   Delta X     New X
                                 (Linear)    (Quad)   (Total)
    R1        2.71211  -0.00101  -0.00642   0.00544  -0.00099   2.71112
    R2        2.04995   0.00124   0.00628  -0.00641  -0.00013   2.04983
    R3        2.06322   0.00061   0.00045   0.00117   0.00161   2.06483
    R4        2.06163   0.00057   0.00268  -0.00241   0.00027   2.06189
    R5        2.54467  -0.00000   0.02056  -0.03218  -0.01163   2.53304
    R6        2.65911  -0.00002  -0.00638   0.00810   0.00173   2.66084
    R7        2.65440   0.00038  -0.00573   0.00759   0.00186   2.65627
    R8        2.59795   0.00574   0.01303  -0.00938   0.00365   2.60160
    R9        2.04233   0.00187   0.00352  -0.00098   0.00254   2.04487
   R10        2.63728   0.00277  -0.00112   0.00698   0.00586   2.64314
   R11        2.03698   0.00226   0.00462  -0.00175   0.00286   2.03984
   R12        2.62364   0.00390   0.00637  -0.00230   0.00406   2.62770
   R13        2.74718   0.00646   0.00738  -0.00344   0.00394   2.75112
   R14        2.61245   0.00520   0.00803  -0.00288   0.00515   2.61761
   R15        2.03603   0.00277   0.00526  -0.00142   0.00383   2.03986
   R16        2.04045   0.00102   0.00237  -0.00039   0.00198   2.04243
   R17        2.31479   0.01151   0.00865  -0.00493   0.00372   2.31851
   R18        2.31516   0.01145   0.00700  -0.00264   0.00436   2.31952
    A1        1.82677   0.00247   0.01487  -0.00934   0.00557   1.83234
    A2        1.94351  -0.00190   0.01131  -0.02646  -0.01509   1.92842
    A3        1.93429   0.00084   0.00039  -0.00017   0.00025   1.93454
    A4        1.91671  -0.00032  -0.02009   0.02837   0.00835   1.92507
    A5        1.92911  -0.00191  -0.01735   0.01919   0.00185   1.93096
    A6        1.91221   0.00082   0.00979  -0.01050  -0.00065   1.91156
    A7        2.09357  -0.00207  -0.01801   0.00961  -0.00840   2.08517
    A8        2.02944  -0.00254  -0.00618   0.00460  -0.00156   2.02788
    A9        2.15732   0.00357   0.00935  -0.00814   0.00123   2.15855
   A10        2.09639  -0.00103  -0.00341   0.00373   0.00036   2.09675
   A11        2.09678   0.00109   0.00449  -0.00546  -0.00096   2.09582
   A12        2.07216  -0.00062   0.00691  -0.01095  -0.00405   2.06811
   A13        2.11423  -0.00047  -0.01139   0.01641   0.00501   2.11925
   A14        2.07753   0.00084   0.00000   0.00260   0.00261   2.08015
   A15        2.11823  -0.00111  -0.01452   0.01680   0.00227   2.12050
   A16        2.08740   0.00027   0.01449  -0.01935  -0.00487   2.08253
   A17        2.12362  -0.00274  -0.00593   0.00256  -0.00336   2.12026
   A18        2.07934   0.00138   0.00366  -0.00206   0.00160   2.08094
   A19        2.08021   0.00136   0.00229  -0.00051   0.00178   2.08198
   A20        2.08592   0.00061   0.00135  -0.00090   0.00046   2.08639
   A21        2.08552   0.00041   0.01253  -0.01601  -0.00349   2.08203
   A22        2.11173  -0.00101  -0.01388   0.01692   0.00304   2.11477
   A23        2.08603   0.00123   0.00356  -0.00270   0.00089   2.08692
   A24        2.11256  -0.00044   0.00755  -0.01372  -0.00616   2.10640
   A25        2.08459  -0.00079  -0.01112   0.01637   0.00527   2.08985
   A26        2.05604   0.00401   0.01025   0.00212   0.00876   2.06480
   A27        2.05217   0.00447   0.01165   0.00165   0.00968   2.06185
   A28        2.13104   0.00217   0.01327   0.01542   0.02508   2.15612
    D1       -2.98242  -0.00071  -0.02660   0.02178  -0.00488  -2.98730
    D2        1.23086  -0.00080  -0.01737   0.00705  -0.01031   1.22055
    D3       -0.90251  -0.00111  -0.03836   0.03903   0.00071  -0.90180
    D4        3.03366   0.00028  -0.16736   0.25552   0.08813   3.12179
    D5       -0.11772   0.00023  -0.18230   0.27791   0.09564  -0.02208
    D6        3.11704   0.00035  -0.00094   0.00966   0.00864   3.12568
    D7       -0.01989   0.00016  -0.00403   0.01004   0.00595  -0.01393
    D8       -0.01513   0.00037   0.01323  -0.01183   0.00141  -0.01372
    D9        3.13113   0.00018   0.01014  -0.01145  -0.00127   3.12985
   D10       -3.12110  -0.00019   0.00394  -0.01020  -0.00635  -3.12745
   D11        0.02571  -0.00041  -0.00590  -0.00056  -0.00647   0.01924
   D12        0.01035  -0.00025  -0.01159   0.01301   0.00143   0.01178
   D13       -3.12602  -0.00047  -0.02143   0.02266   0.00131  -3.12472
   D14        0.00830   0.00019  -0.00281   0.00020  -0.00264   0.00566
   D15       -3.14059  -0.00012  -0.00573   0.00690   0.00113  -3.13947
   D16       -3.13808   0.00038   0.00037  -0.00026   0.00011  -3.13797
   D17       -0.00378   0.00008  -0.00255   0.00643   0.00387   0.00009
   D18        0.00323  -0.00088  -0.00934   0.01042   0.00109   0.00432
   D19        3.13764  -0.00025  -0.00341   0.00805   0.00466  -3.14089
   D20       -3.13120  -0.00057  -0.00628   0.00370  -0.00262  -3.13382
[...]
 ! A24   A(3,8,18)             121.1966         -DE/DX =    0.0                 !
 ! A25   A(7,8,18)             119.0544         -DE/DX =    0.0                 !
 ! A26   A(6,9,10)             118.3918         -DE/DX =    0.0                 !
 ! A27   A(6,9,11)             118.2512         -DE/DX =    0.0                 !
 ! A28   A(10,9,11)            123.357          -DE/DX =   -0.0001              !
 ! D1    D(12,1,2,3)           179.9689         -DE/DX =    0.0                 !
 ! D2    D(13,1,2,3)            61.319          -DE/DX =    0.0                 !
 ! D3    D(14,1,2,3)           -61.3901         -DE/DX =    0.0                 !
 ! D4    D(1,2,3,4)            179.9085         -DE/DX =    0.0                 !
 ! D5    D(1,2,3,8)             -0.0967         -DE/DX =    0.0                 !
 ! D6    D(2,3,4,5)           -179.9933         -DE/DX =    0.0                 !
 ! D7    D(2,3,4,15)             0.0051         -DE/DX =    0.0                 !
 ! D8    D(8,3,4,5)              0.0116         -DE/DX =    0.0                 !
 ! D9    D(8,3,4,15)          -179.9899         -DE/DX =    0.0                 !
 ! D10   D(2,3,8,7)            179.9927         -DE/DX =    0.0                 !
 ! D11   D(2,3,8,18)            -0.0114         -DE/DX =    0.0                 !
 ! D12   D(4,3,8,7)             -0.0127         -DE/DX =    0.0                 !
 ! D13   D(4,3,8,18)           179.9832         -DE/DX =    0.0                 !
 ! D14   D(3,4,5,6)              0.0042         -DE/DX =    0.0                 !
 ! D15   D(3,4,5,16)           179.9919         -DE/DX =    0.0                 !
 ! D16   D(15,4,5,6)          -179.9942         -DE/DX =    0.0                 !
 ! D17   D(15,4,5,16)           -0.0065         -DE/DX =    0.0                 !
 ! D18   D(4,5,6,7)             -0.0193         -DE/DX =    0.0                 !
 ! D19   D(4,5,6,9)            179.9589         -DE/DX =    0.0                 !
 ! D20   D(16,5,6,7)           179.9928         -DE/DX =    0.0                 !
 ! D21   D(16,5,6,9)            -0.029          -DE/DX =    0.0                 !
 ! D22   D(5,6,7,8)              0.0183         -DE/DX =    0.0                 !
 ! D23   D(5,6,7,17)          -179.9942         -DE/DX =    0.0                 !
 ! D24   D(9,6,7,8)           -179.9599         -DE/DX =    0.0                 !
 ! D25   D(9,6,7,17)             0.0276         -DE/DX =    0.0                 !
 ! D26   D(5,6,9,10)           180.0193         -DE/DX =    0.0                 !
 ! D27   D(5,6,9,11)             0.025          -DE/DX =    0.0                 !
 ! D28   D(7,6,9,10)            -0.0021         -DE/DX =    0.0                 !
 ! D29   D(7,6,9,11)           180.0036         -DE/DX =    0.0                 !
 ! D30   D(6,7,8,3)             -0.0021         -DE/DX =    0.0                 !
 ! D31   D(6,7,8,18)          -179.998          -DE/DX =    0.0                 !
 ! D32   D(17,7,8,3)          -179.9895         -DE/DX =    0.0                 !
 ! D33   D(17,7,8,18)            0.0146         -DE/DX =    0.0                 !
 --------------------------------------------------------------------------------
 GradGradGradGradGradGradGradGradGradGradGradGradGradGradGradGradGradGrad

                          Input orientation:                          
 ---------------------------------------------------------------------
 Center     Atomic      Atomic             Coordinates (Angstroms)
 Number     Number       Type             X           Y           Z
 ---------------------------------------------------------------------
      1          6           0        1.664835    0.926857   -0.841016
      2          8           0        2.694804    0.195603   -0.164680
      3          6           0        3.289944   -0.835851   -0.792773
      4          6           0        4.292208   -1.499911   -0.060540
      5          6           0        4.965904   -2.571033   -0.610962
      6          6           0        4.640863   -2.989057   -1.905668
      7          6           0        3.652003   -2.343810   -2.643842
      8          6           0        2.973755   -1.266461   -2.091325
      9          7           0        5.349628   -4.118667   -2.491734
     10          8           0        5.048982   -4.470197   -3.631585
     11          8           0        6.218897   -4.672478   -1.820250
     12          1           0        1.347019    1.694826   -0.140717
     13          1           0        0.819407    0.279009   -1.083520
     14          1           0        2.050027    1.395454   -1.749474
     15          1           0        4.521157   -1.152385    0.939756
     16          1           0        5.737150   -3.086710   -0.055669
     17          1           0        3.417978   -2.685028   -3.642957
     18          1           0        2.207908   -0.773358   -2.673985
 ---------------------------------------------------------------------
                    Distance matrix (angstroms):
                    1          2          3          4          5
     1  C    0.000000
     2  O    1.432830   0.000000
     3  C    2.398009   1.346324   0.000000
     4  C    3.660798   2.331804   1.407719   0.000000
     5  C    4.815103   3.607123   2.419246   1.379903   0.000000
     6  C    5.032357   4.118282   2.774854   2.396583   1.398806
     7  C    4.230400   3.675744   2.414847   2.792038   2.431166
     8  C    2.843799   2.434626   1.404150   2.432469   2.803933
     9  N    6.462189   5.574603   4.231507   3.726489   2.465708
    10  O    6.954705   6.271465   4.935741   4.706130   3.569017
    11  O    7.283608   6.233647   4.934996   4.107784   2.729183
    12  H    1.086831   2.016127   3.256449   4.345907   5.613823
    13  H    1.092366   2.090056   2.725985   4.033781   5.053660
    14  H    1.092362   2.089726   2.726058   4.032743   5.052877
    15  H    3.956384   2.524364   2.148892   1.083413   2.148276
    16  H    5.771416   4.476754   3.405658   2.146115   1.081247
    17  H    4.895927   4.573776   3.399911   3.873305   3.406180
    18  H    2.558405   2.733599   2.171098   3.420859   3.885130
                    6          7          8          9         10
     6  C    0.000000
     7  C    1.392512   0.000000
     8  C    2.404383   1.387796   0.000000
     9  N    1.456654   2.460728   3.733655   0.000000
    10  O    2.310655   2.729232   4.116175   1.230130   0.000000
    11  O    2.308981   3.562295   4.712259   1.230133   2.165769
    12  H    5.991930   5.281020   3.901328   7.439413   7.993635
    13  H    5.095067   4.163819   2.836435   6.468811   6.851051
    14  H    5.095171   4.165131   2.838296   6.468682   6.851418
    15  H    3.388824   3.875190   3.405131   4.610891   5.673062
    16  H    2.152644   3.405640   3.885043   2.673860   3.895483
    17  H    2.146173   1.081401   2.148774   2.666816   2.418085
    18  H    3.379187   2.133691   1.081279   4.592897   4.759760
                   11         12         13         14         15
    11  O    0.000000
    12  H    8.191373   0.000000
    13  H    7.363049   1.780952   0.000000
    14  H    7.362356   1.780996   1.790076   0.000000
    15  H    4.784455   4.398770   4.454827   4.453081   0.000000
    16  H    2.420845   6.491808   6.047209   6.045961   2.492212
    17  H    3.888106   5.978100   4.699873   4.701797   4.956537
    18  H    5.658625   3.640125   2.359023   2.362920   4.307424
                   16         17         18
    16  H    0.000000
    17  H    4.290518   0.000000
    18  H    4.966158   2.461231   0.000000
 Symmetry turned off by external request.
 Stoichiometry    C7H7NO3
 Framework group  C1[X(C7H7NO3)]
 Deg. of freedom    48
 Full point group                 C1      NOp   1
 Rotational constants (GHZ):           3.5474705           0.5842531           0.5032491

 **********************************************************************

            Population analysis using the SCF Density.

 **********************************************************************

 Alpha  occ. eigenvalues --  -19.17222 -19.15416 -19.15402 -14.55478 -10.26397
 Alpha  occ. eigenvalues --  -10.23407 -10.22792 -10.20610 -10.20426 -10.19492
 Alpha  occ. eigenvalues --  -10.19291  -1.23635  -1.09138  -1.06022  -0.89427
 Alpha  occ. eigenvalues --   -0.81404  -0.78106  -0.74137  -0.68173  -0.64048
 Alpha  occ. eigenvalues --   -0.59838  -0.57153  -0.54403  -0.54295  -0.52935
 Alpha  occ. eigenvalues --   -0.50102  -0.48475  -0.47305  -0.45413  -0.43599
 Alpha  occ. eigenvalues --   -0.43227  -0.40359  -0.38669  -0.34970  -0.34926
 Alpha  occ. eigenvalues --   -0.32313  -0.32245  -0.30216  -0.28348  -0.25222
 Alpha virt. eigenvalues --   -0.09583  -0.03183   0.00446   0.04691   0.06403
 Alpha virt. eigenvalues --    0.08020   0.09925   0.11021   0.11815   0.11824
 Alpha virt. eigenvalues --    0.14176   0.14396   0.16162   0.20970   0.22735
 Alpha virt. eigenvalues --    0.24452   0.25601   0.28582   0.30960   0.32208
 Alpha virt. eigenvalues --    0.33494   0.35592   0.36646   0.36841   0.37390
 Alpha virt. eigenvalues --    0.39084   0.40339   0.41882   0.42613   0.43991
 Alpha virt. eigenvalues --    0.44234   0.46458   0.47965   0.50114   0.50567
 Alpha virt. eigenvalues --    0.51683   0.54489   0.56301   0.57675   0.59462
 Alpha virt. eigenvalues --    0.60557   0.61901   0.61928   0.63459   0.63638
 Alpha virt. eigenvalues --    0.65011   0.65974   0.69141   0.70942   0.72423
 Alpha virt. eigenvalues --    0.73765   0.77589   0.78445   0.79244   0.81516
 Alpha virt. eigenvalues --    0.81711   0.82256   0.84046   0.85074   0.87076
 Alpha virt. eigenvalues --    0.90207   0.92494   0.96302   0.98221   0.99235
 Alpha virt. eigenvalues --    1.01134   1.03434   1.07058   1.10219   1.17209
 Alpha virt. eigenvalues --    1.17589   1.17748   1.18693   1.20456   1.21284
 Alpha virt. eigenvalues --    1.22400   1.32276   1.32789   1.40917   1.42368
 Alpha virt. eigenvalues --    1.42838   1.48651   1.49782   1.53022   1.56128
 Alpha virt. eigenvalues --    1.58679   1.59554   1.64878   1.65790   1.66288
 Alpha virt. eigenvalues --    1.67519   1.69829   1.74476   1.74925   1.77503
 Alpha virt. eigenvalues --    1.80139   1.84441   1.88825   1.89427   1.93194
 Alpha virt. eigenvalues --    1.93533   1.99710   2.08748   2.13783   2.14301
 Alpha virt. eigenvalues --    2.18736   2.23575   2.27927   2.29378   2.29728
 Alpha virt. eigenvalues --    2.33252   2.33364   2.35108   2.38428   2.39862
 Alpha virt. eigenvalues --    2.49840   2.54109   2.60906   2.62753   2.63352
 Alpha virt. eigenvalues --    2.65446   2.77119   2.78141   2.79789   2.80866
 Alpha virt. eigenvalues --    2.81459   2.82051   2.86332   2.87643   2.92598
 Alpha virt. eigenvalues --    2.99596   3.00620   3.09955   3.11326   3.11572
 Alpha virt. eigenvalues --    3.15997   3.18528   3.19479   3.21802   3.26025
 Alpha virt. eigenvalues --    3.27816   3.29010   3.34162   3.35263   3.35435
 Alpha virt. eigenvalues --    3.40646   3.50949   3.51715   3.62417   3.64826
 Alpha virt. eigenvalues --    3.71461   3.73657   3.80237   3.92498   3.95861
 Alpha virt. eigenvalues --    4.04784   4.41389   4.59129   4.76757   4.80835
 Alpha virt. eigenvalues --    4.82626   4.85430   4.90454   4.95924   5.19627
 Alpha virt. eigenvalues --    5.55500   5.67601   6.00358  23.20875  23.41692
 Alpha virt. eigenvalues --   23.76883  23.82420  23.97349  24.05061  24.11615
 Alpha virt. eigenvalues --   35.35475  49.80857  49.88579  49.94255
          Condensed to atoms (all electrons):
               1          2          3          4          5          6
     1  C    5.179355   0.256669  -0.089756   0.007144  -0.000278   0.000029
     2  O    0.256669   7.888503   0.400236  -0.056036   0.003265  -0.000432
     3  C   -0.089756   0.400236   4.687987   0.504227  -0.029068  -0.056636
     4  C    0.007144  -0.056036   0.504227   5.040051   0.517535  -0.038363
     5  C   -0.000278   0.003265  -0.029068   0.517535   5.059337   0.425660
     6  C    0.000029  -0.000432  -0.056636  -0.038363   0.425660   5.197025
     7  C   -0.000792   0.006838   0.019046  -0.039083  -0.084808   0.420547
     8  C   -0.012756  -0.079346   0.367134  -0.055223  -0.037078  -0.024845
     9  N   -0.000000   0.000000  -0.000264   0.004037  -0.036211   0.241316
    10  O    0.000000   0.000000   0.000102  -0.000154   0.009212  -0.148882
    11  O    0.000000   0.000000   0.000076   0.001276   0.021364  -0.147844
    12  H    0.383852  -0.021209   0.003115  -0.000394   0.000027  -0.000003
    13  H    0.374066  -0.031250  -0.005926   0.000280  -0.000030   0.000001
    14  H    0.374088  -0.031316  -0.005857   0.000286  -0.000031   0.000001
    15  H   -0.000848   0.007288  -0.051856   0.385170  -0.035078   0.006915
    16  H    0.000014  -0.000102   0.006865  -0.030028   0.381651  -0.047134
    17  H   -0.000022  -0.000055   0.004363  -0.000789   0.005582  -0.044577
    18  H    0.004516  -0.007088  -0.044642   0.002936  -0.000043   0.006236
               7          8          9         10         11         12
     1  C   -0.000792  -0.012756  -0.000000   0.000000   0.000000   0.383852
     2  O    0.006838  -0.079346   0.000000   0.000000   0.000000  -0.021209
     3  C    0.019046   0.367134  -0.000264   0.000102   0.000076   0.003115
     4  C   -0.039083  -0.055223   0.004037  -0.000154   0.001276  -0.000394
     5  C   -0.084808  -0.037078  -0.036211   0.009212   0.021364   0.000027
     6  C    0.420547  -0.024845   0.241316  -0.148882  -0.147844  -0.000003
     7  C    5.117523   0.412747  -0.036803   0.021819   0.009489   0.000036
     8  C    0.412747   5.325461   0.004274   0.001462  -0.000151   0.001241
     9  N   -0.036803   0.004274   6.031239   0.324589   0.324218  -0.000000
    10  O    0.021819   0.001462   0.324589   8.197184  -0.120562   0.000000
    11  O    0.009489  -0.000151   0.324218  -0.120562   8.197500   0.000000
    12  H    0.000036   0.001241  -0.000000   0.000000   0.000000   0.433977
    13  H   -0.000600   0.003092   0.000000   0.000000   0.000000  -0.023656
    14  H   -0.000603   0.003093   0.000000   0.000000   0.000000  -0.023643
    15  H   -0.002254   0.011944  -0.000089   0.000003  -0.000059  -0.000109
    16  H    0.006766  -0.001905  -0.008768   0.000768   0.024114  -0.000000
    17  H    0.376829  -0.024930  -0.008727   0.025176   0.000833   0.000001
    18  H   -0.030840   0.392630  -0.000129  -0.000114   0.000001   0.000074
              13         14         15         16         17         18
     1  C    0.374066   0.374088  -0.000848   0.000014  -0.000022   0.004516
     2  O   -0.031250  -0.031316   0.007288  -0.000102  -0.000055  -0.007088
     3  C   -0.005926  -0.005857  -0.051856   0.006865   0.004363  -0.044642
     4  C    0.000280   0.000286   0.385170  -0.030028  -0.000789   0.002936
     5  C   -0.000030  -0.000031  -0.035078   0.381651   0.005582  -0.000043
     6  C    0.000001   0.000001   0.006915  -0.047134  -0.044577   0.006236
     7  C   -0.000600  -0.000603  -0.002254   0.006766   0.376829  -0.030840
     8  C    0.003092   0.003093   0.011944  -0.001905  -0.024930   0.392630
     9  N    0.000000   0.000000  -0.000089  -0.008768  -0.008727  -0.000129
    10  O    0.000000   0.000000   0.000003   0.000768   0.025176  -0.000114
    11  O    0.000000   0.000000  -0.000059   0.024114   0.000833   0.000001
    12  H   -0.023656  -0.023643  -0.000109  -0.000000   0.000001   0.000074
    13  H    0.487374  -0.040200   0.000154  -0.000002   0.000008   0.000734
    14  H   -0.040200   0.487401   0.000154  -0.000002   0.000007   0.000733
    15  H    0.000154   0.000154   0.455297  -0.007890   0.000061  -0.000192
    16  H   -0.000002  -0.000002  -0.007890   0.429933  -0.000355   0.000048
    17  H    0.000008   0.000007   0.000061  -0.000355   0.425124  -0.005954
    18  H    0.000734   0.000733  -0.000192   0.000048  -0.005954   0.428952
 Mulliken charges:
               1
     1  C   -0.475282
     2  O   -0.335962
     3  C    0.290853
     4  C   -0.242872
     5  C   -0.201006
     6  C    0.210986
     7  C   -0.195857
     8  C   -0.286842
     9  N    0.161318
    10  O   -0.310602
    11  O   -0.310254
    12  H    0.246691
    13  H    0.235953
    14  H    0.235888
    15  H    0.231389
    16  H    0.246029
    17  H    0.247426
    18  H    0.252143
 Sum of Mulliken charges =  -0.00000
 Mulliken charges with hydrogens summed into heavy atoms:
               1
     1  C    0.243250
     2  O   -0.335962
     3  C    0.290853
     4  C   -0.011482
     5  C    0.045023
     6  C    0.210986
     7  C    0.051568
     8  C   -0.034699
     9  N    0.161318
    10  O   -0.310602
    11  O   -0.310254
 Electronic spatial extent (au):  <R**2>=           8722.4495
 Charge=             -0.0000 electrons
 Dipole moment (field-independent basis, Debye):
    X=             -4.6897    Y=              6.0719    Z=              1.5218  Tot=              7.8216
 Quadrupole moment (field-independent basis, Debye-Ang):
   XX=            -98.7947   YY=            -93.1428   ZZ=            -69.6746
   XY=             34.0286   XZ=             18.7310   YZ=            -18.9398
 Traceless Quadrupole moment (field-independent basis, Debye-Ang):
   XX=            -11.5907   YY=             -5.9388   ZZ=             17.5295
   XY=             34.0286   XZ=             18.7310   YZ=            -18.9398
 Octapole moment (field-independent basis, Debye-Ang**2):
  XXX=           -991.2118  YYY=            559.2350  ZZZ=            322.5448  XYY=           -442.5008
  XXY=            339.9752  XXZ=            224.3952  XZZ=           -308.8256  YZZ=            190.3183
  YYZ=            193.3455  XYZ=           -111.4431
 Hexadecapole moment (field-independent basis, Debye-Ang**3):
 XXXX=          -8303.2025 YYYY=          -3746.7777 ZZZZ=          -1565.7309 XXXY=           3311.0618
 XXXZ=           2026.9917 YYYX=           3006.2846 YYYZ=          -1337.3898 ZZZX=           1480.2403
 ZZZY=          -1065.7289 XXYY=          -2801.5149 XXZZ=          -1724.6368 YYZZ=          -1047.2012
 XXYZ=           -932.7909 YYXZ=            982.8507 ZZXY=           1008.0818
 N-N= 5.827695362336D+02 E-N=-2.455330252351D+03  KE= 5.496184058400D+02
 Unable to Open any file for archive entry.
 1\1\GINC-SE247\FOpt\RB3LYP\6-311G(d)\C7H7N1O3\KEIGHAN\07-Jun-2024\0\\#
  opt B3LYP/6-311g* scrf=(solvent=water) int=ultrafine Nosymm\\4-nitroa
 nisole ground state geometry optimization\\0,1\C,1.6648346092,0.926857
 1957,-0.8410156964\O,2.6948040266,0.1956025276,-0.1646795945\C,3.28994
 3705,-0.8358513552,-0.7927727978\C,4.2922084989,-1.4999109465,-0.06054
 04722\C,4.9659037081,-2.5710330991,-0.6109623861\C,4.6408632375,-2.989
 0571674,-1.9056676115\C,3.6520030817,-2.3438100936,-2.6438423367\C,2.9
 737552829,-1.2664608474,-2.0913250967\N,5.349627836,-4.1186670765,-2.4
 917343626\O,5.0489818496,-4.4701974216,-3.6315846207\O,6.2188974785,-4
 .6724784714,-1.820249732\H,1.3470191211,1.6948257278,-0.140716594\H,0.
 8194073899,0.2790088456,-1.0835195866\H,2.0500272072,1.3954540021,-1.7
 494744881\H,4.5211566234,-1.1523853414,0.939756031\H,5.737149921,-3.08
 67102329,-0.0556685473\H,3.4179780858,-2.6850279213,-3.6429571463\H,2.
 2079083377,-0.7733583246,-2.6739849615\\Version=ES64L-G16RevC.01\HF=-5
 51.4196044\RMSD=6.044e-09\RMSF=1.682e-05\Dipole=-1.8450555,2.3888725,0
 .5987389\Quadrupole=-8.617396,-4.4153259,13.032722,25.2994448,13.92602
 31,-14.0813112\PG=C01 [X(C7H7N1O3)]\\@
 The archive entry for this job was punched.


 AN OPTIMIST IS A GUY
 THAT HAS NEVER HAD
 MUCH EXPERIENCE
   (CERTAIN MAXIMS OF ARCHY  -- DON MARQUIS)
 Job cpu time:       0 days  0 hours 58 minutes 12.7 seconds.
 Elapsed time:       0 days  0 hours 16 minutes  7.7 seconds.
 File lengths (MBytes):  RWF=     69 Int=      0 D2E=      0 Chk=      6 Scr=      1
 Normal termination of Gaussian 16 at Fri Jun  7 16:42:57 2024.
