 Entering Gaussian System, Link 0=g16
 Initial command:
 /arc/software/Gaussian/g16.c01/l1.exe "/tmp/slurm/1118367/Gau-32824.inp" -scrdir="/tmp/slurm/1118367/"
 Entering Link 1 = /arc/software/Gaussian/g16.c01/l1.exe PID=     32825.
  
 Copyright (c) 1988-2019, Gaussian, Inc.  All Rights Reserved.
  
 This is part of the Gaussian(R) 16 program.  It is based on
 the Gaussian(R) 09 system (copyright 2009, Gaussian, Inc.),
 the Gaussian(R) 03 system (copyright 2003, Gaussian, Inc.),
 the Gaussian(R) 98 system (copyright 1998, Gaussian, Inc.),
 the Gaussian(R) 94 system (copyright 1995, Gaussian, Inc.),
 the Gaussian 92(TM) system (copyright 1992, Gaussian, Inc.),
 the Gaussian 90(TM) system (copyright 1990, Gaussian, Inc.),
 the Gaussian 88(TM) system (copyright 1988, Gaussian, Inc.),
 the Gaussian 86(TM) system (copyright 1986, Carnegie Mellon
 University), and the Gaussian 82(TM) system (copyright 1983,
 Carnegie Mellon University). Gaussian is a federally registered
 trademark of Gaussian, Inc.
  
 This software contains proprietary and confidential information,
 including trade secrets, belonging to Gaussian, Inc.
  
 This software is provided under written license and may be
 used, copied, transmitted, or stored only in accord with that
 written license.
  
 The following legend is applicable only to US Government
 contracts under FAR:
  
                    RESTRICTED RIGHTS LEGEND
  
 Use, reproduction and disclosure by the US Government is
 subject to restrictions as set forth in subparagraphs (a)
 and (c) of the Commercial Computer Software - Restricted
 Rights clause in FAR 52.227-19.
  
 Gaussian, Inc.
 340 Quinnipiac St., Bldg. 40, Wallingford CT 06492
  
  
 ---------------------------------------------------------------
 Warning -- This program may not be used in any manner that
 competes with the business of Gaussian, Inc. or will provide
 assistance to any competitor of Gaussian, Inc.  The licensee
 of this program is prohibited from giving any competitor of
 Gaussian, Inc. access to this program.  By using this program,
 the user acknowledges that Gaussian, Inc. is engaged in the
 business of creating and licensing software in the field of
 computational chemistry and represents and warrants to the
 licensee that it is not a competitor of Gaussian, Inc. and that
 it will not use this program in any manner prohibited above.
 ---------------------------------------------------------------
  

 Cite this work as:
 Gaussian 16, Revision C.01,
 M. J. Frisch, G. W. Trucks, H. B. Schlegel, G. E. Scuseria, 
 M. A. Robb, J. R. Cheeseman, G. Scalmani, V. Barone, 
 G. A. Petersson, H. Nakatsuji, X. Li, M. Caricato, A. V. Marenich, 
 J. Bloino, B. G. Janesko, R. Gomperts, B. Mennucci, H. P. Hratchian, 
 J. V. Ortiz, A. F. Izmaylov, J. L. Sonnenberg, D. Williams-Young, 
 F. Ding, F. Lipparini, F. Egidi, J. Goings, B. Peng, A. Petrone, 
 T. Henderson, D. Ranasinghe, V. G. Zakrzewski, J. Gao, N. Rega, 
 G. Zheng, W. Liang, M. Hada, M. Ehara, K. Toyota, R. Fukuda, 
 J. Hasegawa, M. Ishida, T. Nakajima, Y. Honda, O. Kitao, H. Nakai, 
 T. Vreven, K. Throssell, J. A. Montgomery, Jr., J. E. Peralta, 
 F. Ogliaro, M. J. Bearpark, J. J. Heyd, E. N. Brothers, K. N. Kudin, 
 V. N. Staroverov, T. A. Keith, R. Kobayashi, J. Normand, 
 K. Raghavachari, A. P. Rendell, J. C. Burant, S. S. Iyengar, 
 J. Tomasi, M. Cossi, J. M. Millam, M. Klene, C. Adamo, R. Cammi, 
 J. W. Ochterski, R. L. Martin, K. Morokuma, O. Farkas, 
 J. B. Foresman, and D. J. Fox, Gaussian, Inc., Wallingford CT, 2019.
 
 ******************************************
 Gaussian 16:  ES64L-G16RevC.01  3-Jul-2019
                 6-Jun-2024 
 ******************************************
 %chk=jug.chk
 %mem=128GB
 %nprocshared=4
 Will use up to    4 processors via shared memory.
 ----------------------------------------------------------------------
 # opt M062X/6-311g* TDA=(triplet,root=1) scrf=(solvent=water) int=ultr
 afine Nosymm
 ----------------------------------------------------------------------
 1/18=20,19=15,26=6,38=1/1,3;
 2/9=110,12=2,15=1,17=6,18=5,40=1/2;
 3/5=4,6=6,7=1,11=9,25=1,30=1,70=2201,71=1,72=1,74=-55,75=-5/1,2,3,8;
 4//1;
 5/5=2,38=5,53=1/2;
 8/6=1,10=2,107=1/1;
 9/8=1,15=2,42=1,48=3/14;
 10/5=4,28=1,31=1/2;
 6/7=2,8=2,9=2,10=2/1;
 7/12=6,13=5,14=1,30=1/1,2,3,16;
 1/18=20,19=15,26=6/3(2);
 2/9=110,15=1/2;
 99//99;
 2/9=110,15=1/2;
 3/5=4,6=6,7=1,11=9,25=1,30=1,70=2205,71=1,72=1,74=-55,75=-5/1,2,3,8;
 4/5=5,16=3,69=1/1;
 5/5=2,38=5,53=1/2;
 8/6=1,10=2,107=1/1;
 9/8=1,15=2,42=1,48=3,49=4/14;
 10/5=4,28=1,31=1/2;
 7/12=6,13=5,14=1,30=1/1,2,3,16;
 1/18=20,19=15,26=6/3(-8);
 2/9=110,15=1/2;
 6/7=2,8=2,9=2,10=2/1;
 99/9=10/99;
 ---------------------------------
 Juglone triplet state calculation
 ---------------------------------
 Symbolic Z-matrix:
 Charge =  0 Multiplicity = 3
 O                     2.84874  -0.54614  -0.09603 
 O                     1.06731  -2.454     0.00307 
 O                    -2.95435   1.04914   0.01438 
 C                     0.44055  -0.18524  -0.00097 
 C                    -0.61083   0.73202   0.04065 
 C                     1.75993   0.28268  -0.04186 
 C                     0.15563  -1.63094  -0.00356 
 C                    -0.3449    2.10758   0.07819 
 C                    -2.01179   0.26795   0.0216 
 C                     2.02471   1.65094  -0.03341 
 C                     0.97276   2.56456   0.03855 
 C                    -1.25198  -2.06826  -0.01388 
 C                    -2.25523  -1.18793  -0.00899 
 H                    -1.1622    2.82602   0.13133 
 H                     3.05241   2.00382  -0.08098 
 H                     1.18098   3.63206   0.05654 
 H                    -1.42774  -3.13773  -0.03163 
 H                    -3.29307  -1.50078  -0.02771 
 H                     2.53398  -1.4779   -0.06726 
 

 GradGradGradGradGradGradGradGradGradGradGradGradGradGradGradGradGradGrad
 Berny optimization.
 Initialization pass.
                           ----------------------------
                           !    Initial Parameters    !
                           ! (Angstroms and Degrees)  !
 --------------------------                            --------------------------
 ! Name  Definition              Value          Derivative Info.                !
 --------------------------------------------------------------------------------
 ! R1    R(1,6)                  1.3694         estimate D2E/DX2                !
 ! R2    R(1,19)                 0.9839         estimate D2E/DX2                !
 ! R3    R(2,7)                  1.2283         estimate D2E/DX2                !
 ! R4    R(3,9)                  1.2242         estimate D2E/DX2                !
 ! R5    R(4,5)                  1.3959         estimate D2E/DX2                !
 ! R6    R(4,6)                  1.4005         estimate D2E/DX2                !
 ! R7    R(4,7)                  1.4735         estimate D2E/DX2                !
 ! R8    R(5,8)                  1.4015         estimate D2E/DX2                !
 ! R9    R(5,9)                  1.4759         estimate D2E/DX2                !
 ! R10   R(6,10)                 1.3937         estimate D2E/DX2                !
 ! R11   R(7,12)                 1.474          estimate D2E/DX2                !
 ! R12   R(8,11)                 1.3952         estimate D2E/DX2                !
 ! R13   R(8,14)                 1.0895         estimate D2E/DX2                !
 ! R14   R(9,13)                 1.4764         estimate D2E/DX2                !
 ! R15   R(10,11)                1.3952         estimate D2E/DX2                !
 ! R16   R(10,15)                1.0876         estimate D2E/DX2                !
 ! R17   R(11,16)                1.0878         estimate D2E/DX2                !
 ! R18   R(12,13)                1.3347         estimate D2E/DX2                !
 ! R19   R(12,17)                1.084          estimate D2E/DX2                !
 ! R20   R(13,18)                1.0841         estimate D2E/DX2                !
 ! A1    A(6,1,19)             108.5201         estimate D2E/DX2                !
 ! A2    A(5,4,6)              119.3995         estimate D2E/DX2                !
 ! A3    A(5,4,7)              119.9423         estimate D2E/DX2                !
 ! A4    A(6,4,7)              120.6582         estimate D2E/DX2                !
 ! A5    A(4,5,8)              120.187          estimate D2E/DX2                !
 ! A6    A(4,5,9)              120.5264         estimate D2E/DX2                !
 ! A7    A(8,5,9)              119.2778         estimate D2E/DX2                !
 ! A8    A(1,6,4)              123.2277         estimate D2E/DX2                !
 ! A9    A(1,6,10)             116.3193         estimate D2E/DX2                !
 ! A10   A(4,6,10)             120.4526         estimate D2E/DX2                !
 ! A11   A(2,7,4)              120.9253         estimate D2E/DX2                !
 ! A12   A(2,7,12)             120.6665         estimate D2E/DX2                !
 ! A13   A(4,7,12)             118.4081         estimate D2E/DX2                !
 ! A14   A(5,8,11)             119.9932         estimate D2E/DX2                !
 ! A15   A(5,8,14)             120.4098         estimate D2E/DX2                !
 ! A16   A(11,8,14)            119.5956         estimate D2E/DX2                !
 ! A17   A(3,9,5)              122.0222         estimate D2E/DX2                !
 ! A18   A(3,9,13)             120.1433         estimate D2E/DX2                !
 ! A19   A(5,9,13)             117.8285         estimate D2E/DX2                !
 ! A20   A(6,10,11)            119.9981         estimate D2E/DX2                !
 ! A21   A(6,10,15)            119.8535         estimate D2E/DX2                !
 ! A22   A(11,10,15)           120.1483         estimate D2E/DX2                !
 ! A23   A(8,11,10)            119.9382         estimate D2E/DX2                !
 ! A24   A(8,11,16)            120.1152         estimate D2E/DX2                !
 ! A25   A(10,11,16)           119.9452         estimate D2E/DX2                !
 ! A26   A(7,12,13)            121.4718         estimate D2E/DX2                !
 ! A27   A(7,12,17)            116.5947         estimate D2E/DX2                !
 ! A28   A(13,12,17)           121.9325         estimate D2E/DX2                !
 ! A29   A(9,13,12)            121.7708         estimate D2E/DX2                !
 ! A30   A(9,13,18)            116.2804         estimate D2E/DX2                !
 ! A31   A(12,13,18)           121.9488         estimate D2E/DX2                !
 ! D1    D(19,1,6,4)            -2.0133         estimate D2E/DX2                !
 ! D2    D(19,1,6,10)          178.2052         estimate D2E/DX2                !
 ! D3    D(6,4,5,8)             -1.7401         estimate D2E/DX2                !
 ! D4    D(6,4,5,9)            177.175          estimate D2E/DX2                !
 ! D5    D(7,4,5,8)            178.3497         estimate D2E/DX2                !
 ! D6    D(7,4,5,9)             -2.7352         estimate D2E/DX2                !
 ! D7    D(5,4,6,1)           -179.4043         estimate D2E/DX2                !
 ! D8    D(5,4,6,10)             0.3685         estimate D2E/DX2                !
 ! D9    D(7,4,6,1)              0.5052         estimate D2E/DX2                !
 ! D10   D(7,4,6,10)          -179.722          estimate D2E/DX2                !
 ! D11   D(5,4,7,2)           -177.6653         estimate D2E/DX2                !
 ! D12   D(5,4,7,12)             2.3154         estimate D2E/DX2                !
 ! D13   D(6,4,7,2)              2.4256         estimate D2E/DX2                !
 ! D14   D(6,4,7,12)          -177.5936         estimate D2E/DX2                !
 ! D15   D(4,5,8,11)             1.6833         estimate D2E/DX2                !
 ! D16   D(4,5,8,14)          -178.7429         estimate D2E/DX2                !
 ! D17   D(9,5,8,11)          -177.2452         estimate D2E/DX2                !
 ! D18   D(9,5,8,14)             2.3286         estimate D2E/DX2                !
 ! D19   D(4,5,9,3)           -177.6437         estimate D2E/DX2                !
 ! D20   D(4,5,9,13)             1.4681         estimate D2E/DX2                !
 ! D21   D(8,5,9,3)              1.2811         estimate D2E/DX2                !
 ! D22   D(8,5,9,13)          -179.6071         estimate D2E/DX2                !
 ! D23   D(1,6,10,11)         -179.1439         estimate D2E/DX2                !
 ! D24   D(1,6,10,15)            0.7329         estimate D2E/DX2                !
 ! D25   D(4,6,10,11)            1.0682         estimate D2E/DX2                !
 ! D26   D(4,6,10,15)         -179.055          estimate D2E/DX2                !
 ! D27   D(2,7,12,13)          179.3866         estimate D2E/DX2                !
 ! D28   D(2,7,12,17)           -0.9702         estimate D2E/DX2                !
 ! D29   D(4,7,12,13)           -0.5942         estimate D2E/DX2                !
 ! D30   D(4,7,12,17)          179.0491         estimate D2E/DX2                !
 ! D31   D(5,8,11,10)           -0.2391         estimate D2E/DX2                !
 ! D32   D(5,8,11,16)          179.3273         estimate D2E/DX2                !
 ! D33   D(14,8,11,10)        -179.8164         estimate D2E/DX2                !
 ! D34   D(14,8,11,16)          -0.25           estimate D2E/DX2                !
 ! D35   D(3,9,13,12)          179.408          estimate D2E/DX2                !
 ! D36   D(3,9,13,18)           -0.5631         estimate D2E/DX2                !
 ! D37   D(5,9,13,12)            0.2788         estimate D2E/DX2                !
 ! D38   D(5,9,13,18)         -179.6923         estimate D2E/DX2                !
 ! D39   D(6,10,11,8)           -1.13           estimate D2E/DX2                !
 ! D40   D(6,10,11,16)         179.3029         estimate D2E/DX2                !
 ! D41   D(15,10,11,8)         178.9936         estimate D2E/DX2                !
 ! D42   D(15,10,11,16)         -0.5735         estimate D2E/DX2                !
 ! D43   D(7,12,13,9)           -0.6676         estimate D2E/DX2                !
 ! D44   D(7,12,13,18)         179.3018         estimate D2E/DX2                !
 ! D45   D(17,12,13,9)         179.7083         estimate D2E/DX2                !
 ! D46   D(17,12,13,18)         -0.3222         estimate D2E/DX2                !
 --------------------------------------------------------------------------------
 Trust Radius=3.00D-01 FncErr=5.00D-06 GrdErr=5.00D-06 EigMax=2.50D+02 EigMin=1.00D-04
 Number of steps in this run=    107 maximum allowed number of steps=    114.
 GradGradGradGradGradGradGradGradGradGradGradGradGradGradGradGradGradGrad

                          Input orientation:                          
 ---------------------------------------------------------------------
 Center     Atomic      Atomic             Coordinates (Angstroms)
 Number     Number       Type             X           Y           Z
 ---------------------------------------------------------------------
      1          8           0        2.848740   -0.546140   -0.096030
      2          8           0        1.067310   -2.454000    0.003070
      3          8           0       -2.954350    1.049140    0.014380
      4          6           0        0.440550   -0.185240   -0.000970
      5          6           0       -0.610830    0.732020    0.040650
      6          6           0        1.759930    0.282680   -0.041860
      7          6           0        0.155630   -1.630940   -0.003560
      8          6           0       -0.344900    2.107580    0.078190
      9          6           0       -2.011790    0.267950    0.021600
     10          6           0        2.024710    1.650940   -0.033410
     11          6           0        0.972760    2.564560    0.038550
     12          6           0       -1.251980   -2.068260   -0.013880
     13          6           0       -2.255230   -1.187930   -0.008990
     14          1           0       -1.162200    2.826020    0.131330
     15          1           0        3.052410    2.003820   -0.080980
     16          1           0        1.180980    3.632060    0.056540
     17          1           0       -1.427740   -3.137730   -0.031630
     18          1           0       -3.293070   -1.500780   -0.027710
     19          1           0        2.533980   -1.477900   -0.067260
 ---------------------------------------------------------------------
                    Distance matrix (angstroms):
                    1          2          3          4          5
     1  O    0.000000
     2  O    2.612134   0.000000
     3  O    6.019382   5.333467   0.000000
     4  C    2.436937   2.353745   3.612378   0.000000
     5  C    3.690664   3.601151   2.365025   1.395886   0.000000
     6  C    1.369447   2.823324   4.776511   1.400494   2.414377
     7  C    2.904855   1.228264   4.105500   1.473511   2.484551
     8  C    4.155950   4.775771   2.816664   2.424917   1.401532
     9  C    4.929638   4.109770   1.224226   2.493965   1.475945
    10  C    2.347362   4.215267   5.015524   2.425319   2.792126
    11  C    3.635088   5.019576   4.209427   2.801109   2.421975
    12  C    4.374872   2.351210   3.552048   2.531914   2.873259
    13  C    5.144898   3.555608   2.343885   2.876227   2.528384
    14  H    5.245073   5.732868   2.526417   3.413795   2.167272
    15  H    2.558125   4.880558   6.082900   3.408841   3.879639
    16  H    4.501339   6.087356   4.875880   3.888872   3.408969
    17  H    5.000877   2.587270   4.456740   3.494087   3.955696
    18  H    6.215934   4.463462   2.572663   3.958697   3.490628
    19  H    0.983910   1.763190   6.042712   2.461263   3.845156
                    6          7          8          9         10
     6  C    0.000000
     7  C    2.497436   0.000000
     8  C    2.788365   3.772764   0.000000
     9  C    3.772283   2.881688   2.483136   0.000000
    10  C    1.393670   3.776915   2.415787   4.267203   0.000000
    11  C    2.415177   4.274540   1.395217   3.765932   1.395163
    12  C    3.820904   1.474015   4.274215   2.456918   4.956766
    13  C    4.276130   2.451231   3.810164   1.476410   5.135919
    14  H    3.877811   4.649663   1.089477   2.697696   3.400639
    15  H    2.152756   4.648528   3.402619   5.354427   1.087637
    16  H    3.400472   5.362287   2.157039   4.638129   2.155182
    17  H    4.675527   2.185924   5.357040   3.455807   5.903454
    18  H    5.358520   3.451240   4.660814   2.184609   6.181598
    19  H    1.923393   2.384120   4.600519   4.870309   3.170196
                   11         12         13         14         15
    11  C    0.000000
    12  C    5.139576   0.000000
    13  C    4.950087   1.334734   0.000000
    14  H    2.152911   4.897257   4.162475   0.000000
    15  H    2.157235   5.925716   6.193827   4.299305   0.000000
    16  H    1.087766   6.198218   5.919809   2.479070   2.484417
    17  H    6.187361   1.083962   2.118247   5.971883   6.819803
    18  H    5.893105   2.118555   1.084130   4.825671   7.249150
    19  H    4.334753   3.832084   4.798334   5.676699   3.520132
                   16         17         18         19
    16  H    0.000000
    17  H    7.255567   0.000000
    18  H    6.809572   2.481749   0.000000
    19  H    5.287497   4.295524   5.827229   0.000000
 Symmetry turned off by external request.
 Stoichiometry    C10H6O3(3)
 Framework group  C1[X(C10H6O3)]
 Deg. of freedom    51
 Full point group                 C1      NOp   1
 Rotational constants (GHZ):           1.1712487           0.9103754           0.5124211
 Standard basis: 6-311G(d) (5D, 7F)
   252 basis functions,   446 primitive gaussians,   265 cartesian basis functions
    46 alpha electrons       44 beta electrons
       nuclear repulsion energy       734.9381152234 Hartrees.
 NAtoms=   19 NActive=   19 NUniq=   19 SFac= 1.00D+00 NAtFMM=   60 NAOKFM=F Big=F
 Integral buffers will be    131072 words long.
 Regular integral format.
 Two-electron integral symmetry is turned off.
 ------------------------------------------------------------------------------
 Polarizable Continuum Model (PCM)
 =================================
 Model                : PCM.
 Atomic radii         : UFF (Universal Force Field).
 Polarization charges : Total charges.
 Charge compensation  : None.
 Solution method      : On-the-fly selection.
 Cavity type          : Scaled VdW (van der Waals Surface) (Alpha=1.100).
 Cavity algorithm     : GePol (No added spheres)
                        Default sphere list used, NSphG=   19.
                        Lebedev-Laikov grids with approx.  5.0 points / Ang**2.
                        Smoothing algorithm: York/Karplus (Gamma=1.0000).
                        Polarization charges: spherical gaussians, with
                                              point-specific exponents (IZeta= 3).
                        Self-potential: point-specific (ISelfS= 7).
                        Self-field    : sphere-specific E.n sum rule (ISelfD= 2).
 1st derivatives      : Analytical E(r).r(x)/FMM algorithm (CHGder, D1EAlg=3).
                        Cavity 1st derivative terms included.
 Solvent              : Water, Eps=  78.355300 Eps(inf)=   1.777849
 ------------------------------------------------------------------------------
 Spheres list:
 ISph  on   Nord     Re0    Alpha      Xe            Ye            Ze
    1   O      1    1.7500  1.100      2.848740     -0.546140     -0.096030
    2   O      2    1.7500  1.100      1.067310     -2.454000      0.003070
    3   O      3    1.7500  1.100     -2.954350      1.049140      0.014380
    4   C      4    1.9255  1.100      0.440550     -0.185240     -0.000970
    5   C      5    1.9255  1.100     -0.610830      0.732020      0.040650
    6   C      6    1.9255  1.100      1.759930      0.282680     -0.041860
    7   C      7    1.9255  1.100      0.155630     -1.630940     -0.003560
    8   C      8    1.9255  1.100     -0.344900      2.107580      0.078190
    9   C      9    1.9255  1.100     -2.011790      0.267950      0.021600
   10   C     10    1.9255  1.100      2.024710      1.650940     -0.033410
   11   C     11    1.9255  1.100      0.972760      2.564560      0.038550
   12   C     12    1.9255  1.100     -1.251980     -2.068260     -0.013880
   13   C     13    1.9255  1.100     -2.255230     -1.187930     -0.008990
   14   H     14    1.4430  1.100     -1.162200      2.826020      0.131330
   15   H     15    1.4430  1.100      3.052410      2.003820     -0.080980
   16   H     16    1.4430  1.100      1.180980      3.632060      0.056540
   17   H     17    1.4430  1.100     -1.427740     -3.137730     -0.031630
   18   H     18    1.4430  1.100     -3.293070     -1.500780     -0.027710
   19   H     19    1.4430  1.100      2.533980     -1.477900     -0.067260
 ------------------------------------------------------------------------------
 One-electron integrals computed using PRISM.
 NBasis=   252 RedAO= T EigKep=  1.27D-04  NBF=   252
 NBsUse=   252 1.00D-06 EigRej= -1.00D+00 NBFU=   252
 ExpMin= 1.03D-01 ExpMax= 8.59D+03 ExpMxC= 1.30D+03 IAcc=3 IRadAn=         5 AccDes= 0.00D+00
 Harris functional with IExCor= 1009 and IRadAn=       5 diagonalized for initial guess.
 HarFok:  IExCor= 1009 AccDes= 0.00D+00 IRadAn=         5 IDoV= 1 UseB2=F ITyADJ=14
 ICtDFT=  3500011 ScaDFX=  1.000000  1.000000  1.000000  1.000000
 FoFCou: FMM=F IPFlag=           0 FMFlag=      100000 FMFlg1=           0
         NFxFlg=           0 DoJE=T BraDBF=F KetDBF=T FulRan=T
         wScrn=  0.000000 ICntrl=       500 IOpCl=  0 I1Cent=   200000004 NGrid=           0
         NMat0=    1 NMatS0=      1 NMatT0=    0 NMatD0=    1 NMtDS0=    0 NMtDT0=    0
 Symmetry not used in FoFCou.
 Initial guess <Sx>= 0.0000 <Sy>= 0.0000 <Sz>= 1.0000 <S**2>= 2.0000 S= 1.0000
 Keep R1 and R2 ints in memory in canonical form, NReq=1025650496.
 Requested convergence on RMS density matrix=1.00D-08 within 128 cycles.
 Requested convergence on MAX density matrix=1.00D-06.
 Requested convergence on             energy=1.00D-06.
 No special actions if energy rises.
 Inv3:  Mode=1 IEnd=     8396787.
 Iteration    1 A*A^-1 deviation from unit magnitude is 5.33D-15 for    829.
 Iteration    1 A*A^-1 deviation from orthogonality  is 3.42D-15 for   1669    917.
 Iteration    1 A^-1*A deviation from unit magnitude is 5.33D-15 for   1665.
 Iteration    1 A^-1*A deviation from orthogonality  is 1.73D-15 for   1570   1407.
 Error on total polarization charges =  0.00861
 SCF Done:  E(UM062X) =  -610.165108084     A.U. after   22 cycles
            NFock= 22  Conv=0.92D-08     -V/T= 2.0030
 <Sx>= 0.0000 <Sy>= 0.0000 <Sz>= 1.0000 <S**2>= 2.0401 S= 1.0133
 <L.S>=  0.00000000000    
 Annihilation of the first spin contaminant:
 S**2 before annihilation     2.0401,   after     2.0007
 DoSCS=F DFT=T ScalE2(SS,OS)=  1.000000  1.000000
 ExpMin= 1.03D-01 ExpMax= 8.59D+03 ExpMxC= 1.30D+03 IAcc=3 IRadAn=         5 AccDes= 0.00D+00
 HarFok:  IExCor=  205 AccDes= 0.00D+00 IRadAn=         5 IDoV=-2 UseB2=F ITyADJ=14
 ICtDFT= 12500011 ScaDFX=  1.000000  1.000000  1.000000  1.000000
 Range of M.O.s used for correlation:    14   252
 NBasis=   252 NAE=    46 NBE=    44 NFC=    13 NFV=     0
 NROrb=    239 NOA=    33 NOB=    31 NVA=   206 NVB=   208

 **** Warning!!: The largest alpha MO coefficient is  0.19934998D+02


 **** Warning!!: The largest beta MO coefficient is  0.19570466D+02

 Ignoring spin specification with unrestricted ground state.
 Keep R1, R2, and R3 ints in memory in canonical form, NReq=1545718812.
 NEqPCM:  Using equilibrium solvation (IEInf=0, Eps=  78.3553, EpsInf=   1.7778)
    12 initial guesses have been made.
 Convergence on wavefunction:    0.000001000000000
 Iteration     1 Dimension    12 NMult     0 NNew     12
 CISAX will form    12 AO SS matrices at one time.
 New state      2 was old state      3
 New state      3 was old state      4
 Iteration     2 Dimension    24 NMult    12 NNew     12
 New state      1 was old state      2
 New state      2 was old state      1
 Iteration     3 Dimension    27 NMult    24 NNew      3
 Iteration     4 Dimension    30 NMult    27 NNew      3
 Iteration     5 Dimension    33 NMult    30 NNew      3
 Iteration     6 Dimension    36 NMult    33 NNew      3
 Iteration     7 Dimension    39 NMult    36 NNew      3
 Iteration     8 Dimension    42 NMult    39 NNew      3
 Iteration     9 Dimension    45 NMult    42 NNew      3
 Iteration    10 Dimension    48 NMult    45 NNew      3
 Iteration    11 Dimension    50 NMult    48 NNew      2
 ***********************************************************************
 Excited states from <AA,BB:AA,BB> singles matrix:
 ***********************************************************************
 
 ExtSpn:  IState=     1 X2= 1.000 Y2= 0.000 X2-Y2-1= 2.66D-15
          S2Grnd=  2.040 Ra=  0.006 Rb=  0.000 T=  0.004 S2Ext=  0.010 S2=  2.050
 ExtSpn:  IState=     2 X2= 1.000 Y2= 0.000 X2-Y2-1= 4.44D-16
          S2Grnd=  2.040 Ra=  0.001 Rb=  0.014 T=  0.003 S2Ext=  0.018 S2=  2.058
 ExtSpn:  IState=     3 X2= 1.000 Y2= 0.000 X2-Y2-1= 0.00D+00
          S2Grnd=  2.040 Ra=  0.000 Rb=  0.018 T=  0.003 S2Ext=  0.021 S2=  2.061
 Ground to excited state transition densities written to RWF  633
 Ground to excited state transition electric dipole moments (Au):
       state          X           Y           Z        Dip. S.      Osc.
         1         0.0354     -0.1302      0.0010      0.0182      0.0005
         2        -0.0368      0.0290     -0.0203      0.0026      0.0001
         3         0.0164      0.0045     -0.0160      0.0005      0.0000
 Ground to excited state transition velocity dipole moments (Au):
       state          X           Y           Z        Dip. S.      Osc.
         1         0.0043     -0.0121     -0.0004      0.0002      0.0029
         2        -0.0029      0.0042     -0.0056      0.0001      0.0010
         3         0.0001     -0.0007     -0.0051      0.0000      0.0003
 Ground to excited state transition magnetic dipole moments (Au):
       state          X           Y           Z
         1         0.0368     -0.0321     -0.6747
         2         0.2649     -0.1937      0.1505
         3         0.0204     -0.0566      0.0134
 Ground to excited state transition velocity quadrupole moments (Au):
       state          XX          YY          ZZ          XY          XZ          YZ
         1        -0.1516      0.0450     -0.0017     -0.0823      0.0018      0.0063
         2         0.0484     -0.0102     -0.0013      0.0156     -0.0100     -0.0075
         3        -0.0083     -0.0059      0.0029      0.0047     -0.0250      0.0169
 <0|del|b> * <b|rxdel|0> + <0|del|b> * <b|delr+rdel|0>
 Rotatory Strengths (R) in cgs (10**-40 erg-esu-cm/Gauss)
       state          XX          YY          ZZ    R(velocity)    E-M Angle
         1         6.5512      3.8410      4.6913      5.0278       84.72
         2       -15.4732    -13.7678    -15.0388    -14.7599      152.60
         3        -0.4110     -0.2452      0.3573     -0.0996       90.00
 1/2[<0|r|b>*<b|rxdel|0> + (<0|rxdel|b>*<b|r|0>)*]
 Rotatory Strengths (R) in cgs (10**-40 erg-esu-cm/Gauss)
       state          XX          YY          ZZ     R(length)
         1        -0.9213     -2.9580      0.4924     -1.1290
         2         6.9004      3.9738      2.1603      4.3449
         3        -0.2360      0.1810      0.1517      0.0322
  1/2[<0|del|b>*<b|r|0> + (<0|r|b>*<b|del|0>)*] (Au)
       state          X           Y           Z        Dip. S.   Osc.(frdel)
         1         0.0002      0.0016     -0.0000     -0.0017     -0.0012
         2         0.0001      0.0001      0.0001     -0.0003     -0.0002
         3         0.0000     -0.0000      0.0001     -0.0001     -0.0001

 Excitation energies and oscillator strengths:
 
 Excited state symmetry could not be determined.
 Excited State   1:  3.033-?Sym    1.0217 eV 1213.54 nm  f=0.0005  <S**2>=2.050
     46A -> 47A       -0.21177
     41B -> 45B       -0.26673
     42B -> 45B        0.83123
     43B -> 45B        0.33264
     44B -> 45B        0.23164
 This state for optimization and/or second-order correction.
 Total Energy, E(CIS/TDA) =  -610.127562170    
 Copying the excited state density for this state as the 1-particle RhoCI density.
 
 Excited state symmetry could not be determined.
 Excited State   2:  3.038-?Sym    1.0590 eV 1170.82 nm  f=0.0001  <S**2>=2.058
     41B -> 45B        0.13358
     42B -> 45B       -0.18546
     44B -> 45B        0.92621
     44B -> 46B        0.22692
 
 Excited state symmetry could not be determined.
 Excited State   3:  3.040-?Sym    1.6195 eV  765.59 nm  f=0.0000  <S**2>=2.061
     41B -> 45B        0.90766
     41B -> 46B        0.18698
     42B -> 45B        0.31068
     44B -> 46B       -0.10006
 SavETr:  write IOETrn=   770 NScale= 10 NData=  16 NLR=1 NState=    3 LETran=      64.
          IDoAtm=1111111111111111111
 NEqPCM:  Using equilibrium solvation (IEInf=0, Eps=  78.3553, EpsInf=   1.7778)
          Differentiating once with respect to electric field.
                with respect to dipole field.
          Differentiating once with respect to nuclear coordinates.
 Keep R1 and R2 ints in memory in canonical form, NReq=1025653278.
          There are     1 degrees of freedom in the 1st order CPHF.  IDoFFX=0 NUNeed=     1.
 LinEq1:  Iter=  0 NonCon=     1 RMS=2.94D-03 Max=1.22D-01 NDo=     1
 AX will form     1 AO Fock derivatives at one time.
 LinEq1:  Iter=  1 NonCon=     1 RMS=2.16D-03 Max=1.81D-01 NDo=     1
 LinEq1:  Iter=  2 NonCon=     1 RMS=1.03D-03 Max=4.96D-02 NDo=     1
 LinEq1:  Iter=  3 NonCon=     1 RMS=7.40D-04 Max=4.33D-02 NDo=     1
 LinEq1:  Iter=  4 NonCon=     1 RMS=2.38D-04 Max=1.10D-02 NDo=     1
 LinEq1:  Iter=  5 NonCon=     1 RMS=1.81D-04 Max=9.53D-03 NDo=     1
 LinEq1:  Iter=  6 NonCon=     1 RMS=9.20D-05 Max=3.99D-03 NDo=     1
 LinEq1:  Iter=  7 NonCon=     1 RMS=5.71D-05 Max=2.45D-03 NDo=     1
 LinEq1:  Iter=  8 NonCon=     1 RMS=3.97D-05 Max=1.55D-03 NDo=     1
 LinEq1:  Iter=  9 NonCon=     1 RMS=1.79D-05 Max=7.27D-04 NDo=     1
 LinEq1:  Iter= 10 NonCon=     1 RMS=1.09D-05 Max=2.84D-04 NDo=     1
 LinEq1:  Iter= 11 NonCon=     1 RMS=5.47D-06 Max=1.99D-04 NDo=     1
 LinEq1:  Iter= 12 NonCon=     1 RMS=2.89D-06 Max=9.47D-05 NDo=     1
 LinEq1:  Iter= 13 NonCon=     1 RMS=1.65D-06 Max=6.25D-05 NDo=     1
 LinEq1:  Iter= 14 NonCon=     1 RMS=7.99D-07 Max=3.87D-05 NDo=     1
 LinEq1:  Iter= 15 NonCon=     1 RMS=4.78D-07 Max=2.03D-05 NDo=     1
 LinEq1:  Iter= 16 NonCon=     1 RMS=2.61D-07 Max=9.74D-06 NDo=     1
 LinEq1:  Iter= 17 NonCon=     1 RMS=1.20D-07 Max=4.76D-06 NDo=     1
 LinEq1:  Iter= 18 NonCon=     1 RMS=5.98D-08 Max=2.87D-06 NDo=     1
 LinEq1:  Iter= 19 NonCon=     1 RMS=3.89D-08 Max=1.92D-06 NDo=     1
 LinEq1:  Iter= 20 NonCon=     1 RMS=1.94D-08 Max=9.44D-07 NDo=     1
 LinEq1:  Iter= 21 NonCon=     1 RMS=1.06D-08 Max=3.33D-07 NDo=     1
 LinEq1:  Iter= 22 NonCon=     1 RMS=5.05D-09 Max=1.31D-07 NDo=     1
 LinEq1:  Iter= 23 NonCon=     1 RMS=1.98D-09 Max=7.73D-08 NDo=     1
 LinEq1:  Iter= 24 NonCon=     1 RMS=9.50D-10 Max=2.51D-08 NDo=     1
 LinEq1:  Iter= 25 NonCon=     1 RMS=4.58D-10 Max=1.07D-08 NDo=     1
 LinEq1:  Iter= 26 NonCon=     1 RMS=1.76D-10 Max=4.78D-09 NDo=     1
 LinEq1:  Iter= 27 NonCon=     1 RMS=1.11D-10 Max=3.59D-09 NDo=     1
 LinEq1:  Iter= 28 NonCon=     1 RMS=3.92D-11 Max=1.10D-09 NDo=     1
 LinEq1:  Iter= 29 NonCon=     0 RMS=1.25D-11 Max=3.11D-10 NDo=     1
 Linear equations converged to 1.000D-10 1.000D-09 after    29 iterations.
 End of Minotr F.D. properties file   721 does not exist.
 End of Minotr F.D. properties file   722 does not exist.
 End of Minotr F.D. properties file   788 does not exist.

 **********************************************************************

            Population analysis using the SCF Density.

 **********************************************************************

 Alpha  occ. eigenvalues --  -19.71811 -19.60832 -19.59503 -10.68695 -10.62744
 Alpha  occ. eigenvalues --  -10.61472 -10.61303 -10.59936 -10.59059 -10.58805
 Alpha  occ. eigenvalues --  -10.58754 -10.55015 -10.54903  -1.24691  -1.17387
 Alpha  occ. eigenvalues --   -1.16194  -1.02244  -0.93652  -0.90465  -0.88317
 Alpha  occ. eigenvalues --   -0.79249  -0.75648  -0.74168  -0.70403  -0.63895
 Alpha  occ. eigenvalues --   -0.62584  -0.61496  -0.58826  -0.56788  -0.56184
 Alpha  occ. eigenvalues --   -0.54591  -0.52844  -0.51515  -0.51274  -0.49598
 Alpha  occ. eigenvalues --   -0.49095  -0.48602  -0.46422  -0.45872  -0.45585
 Alpha  occ. eigenvalues --   -0.37244  -0.35653  -0.34930  -0.34439  -0.32907
 Alpha  occ. eigenvalues --   -0.20701
 Alpha virt. eigenvalues --   -0.04257  -0.01603   0.06871   0.08212   0.10421
 Alpha virt. eigenvalues --    0.11079   0.11206   0.12087   0.14817   0.15373
 Alpha virt. eigenvalues --    0.20024   0.22824   0.23240   0.25122   0.27005
 Alpha virt. eigenvalues --    0.27807   0.28558   0.32186   0.33220   0.35750
 Alpha virt. eigenvalues --    0.36794   0.37656   0.38688   0.40524   0.41508
 Alpha virt. eigenvalues --    0.41769   0.42758   0.43435   0.43700   0.44632
 Alpha virt. eigenvalues --    0.44739   0.46055   0.46795   0.47583   0.48983
 Alpha virt. eigenvalues --    0.49239   0.50698   0.53683   0.55294   0.55689
 Alpha virt. eigenvalues --    0.56847   0.58393   0.60906   0.62117   0.63729
 Alpha virt. eigenvalues --    0.64511   0.64585   0.66215   0.66973   0.67786
 Alpha virt. eigenvalues --    0.68674   0.72303   0.72800   0.73971   0.76388
 Alpha virt. eigenvalues --    0.78135   0.80229   0.80951   0.81727   0.82856
 Alpha virt. eigenvalues --    0.84354   0.86456   0.88394   0.89974   0.91493
 Alpha virt. eigenvalues --    0.92374   0.94115   0.96038   0.96726   0.97121
 Alpha virt. eigenvalues --    0.98164   1.01056   1.02200   1.05102   1.05834
 Alpha virt. eigenvalues --    1.09140   1.12323   1.13492   1.14829   1.15752
 Alpha virt. eigenvalues --    1.17585   1.17965   1.20038   1.22222   1.24762
 Alpha virt. eigenvalues --    1.27281   1.27868   1.28254   1.31722   1.38300
 Alpha virt. eigenvalues --    1.41510   1.46479   1.47242   1.47543   1.50568
 Alpha virt. eigenvalues --    1.50891   1.57900   1.58183   1.60399   1.61285
 Alpha virt. eigenvalues --    1.65075   1.66335   1.72564   1.75075   1.75534
 Alpha virt. eigenvalues --    1.75923   1.78851   1.80916   1.81474   1.83673
 Alpha virt. eigenvalues --    1.84980   1.86937   1.89449   1.90117   1.92619
 Alpha virt. eigenvalues --    1.92926   1.96564   1.98884   2.01289   2.03313
 Alpha virt. eigenvalues --    2.12182   2.13039   2.19308   2.21474   2.22064
 Alpha virt. eigenvalues --    2.28284   2.30211   2.31995   2.32754   2.33307
 Alpha virt. eigenvalues --    2.36476   2.40363   2.47064   2.51789   2.55151
 Alpha virt. eigenvalues --    2.58411   2.62371   2.65266   2.69500   2.71164
 Alpha virt. eigenvalues --    2.73606   2.74799   2.79474   2.82135   2.85376
 Alpha virt. eigenvalues --    2.87343   2.98240   2.98355   2.99405   2.99754
 Alpha virt. eigenvalues --    3.02967   3.05788   3.08666   3.09453   3.14832
 Alpha virt. eigenvalues --    3.16683   3.18387   3.19774   3.21713   3.23646
 Alpha virt. eigenvalues --    3.25416   3.29671   3.30808   3.36020   3.36911
 Alpha virt. eigenvalues --    3.38421   3.39102   3.42353   3.45074   3.47570
 Alpha virt. eigenvalues --    3.55614   3.57375   3.57541   3.59741   3.69279
 Alpha virt. eigenvalues --    3.74166   3.78540   3.83880   3.97396   4.05730
 Alpha virt. eigenvalues --    4.16094   4.25478   4.70055   4.76925   4.86166
 Alpha virt. eigenvalues --    4.99046   5.01384   5.12056   5.19140   5.25447
 Alpha virt. eigenvalues --    5.58572   5.70991   5.80377  23.31068  23.58497
 Alpha virt. eigenvalues --   23.84384  23.87557  23.92839  23.96123  24.03567
 Alpha virt. eigenvalues --   24.08143  24.15088  24.28076  49.95014  50.09818
 Alpha virt. eigenvalues --   50.11774
  Beta  occ. eigenvalues --  -19.71293 -19.60354 -19.58926 -10.68601 -10.62712
  Beta  occ. eigenvalues --  -10.61464 -10.61103 -10.59805 -10.59006 -10.58805
  Beta  occ. eigenvalues --  -10.58747 -10.54992 -10.54879  -1.23183  -1.16108
  Beta  occ. eigenvalues --   -1.14666  -1.01223  -0.93063  -0.88802  -0.88040
  Beta  occ. eigenvalues --   -0.78267  -0.74907  -0.73555  -0.69738  -0.63142
  Beta  occ. eigenvalues --   -0.62035  -0.60916  -0.58034  -0.55692  -0.53974
  Beta  occ. eigenvalues --   -0.53159  -0.52072  -0.50481  -0.49154  -0.48206
  Beta  occ. eigenvalues --   -0.47897  -0.45876  -0.45187  -0.45117  -0.40931
  Beta  occ. eigenvalues --   -0.34104  -0.34091  -0.32888  -0.32037
  Beta virt. eigenvalues --   -0.18148  -0.05835   0.00047   0.01343   0.08336
  Beta virt. eigenvalues --    0.10310   0.10532   0.11439   0.12223   0.13272
  Beta virt. eigenvalues --    0.14832   0.15511   0.20706   0.23712   0.24870
  Beta virt. eigenvalues --    0.25632   0.27514   0.28274   0.29028   0.32585
  Beta virt. eigenvalues --    0.33657   0.36297   0.37512   0.37834   0.39460
  Beta virt. eigenvalues --    0.40904   0.41752   0.42082   0.43291   0.43768
  Beta virt. eigenvalues --    0.44155   0.45123   0.45327   0.46724   0.47082
  Beta virt. eigenvalues --    0.47614   0.49486   0.49827   0.50846   0.54535
  Beta virt. eigenvalues --    0.55307   0.55789   0.56923   0.59177   0.61774
  Beta virt. eigenvalues --    0.62764   0.64081   0.64347   0.65037   0.66921
  Beta virt. eigenvalues --    0.67686   0.68118   0.69114   0.72934   0.72972
  Beta virt. eigenvalues --    0.74220   0.76588   0.78661   0.80736   0.81638
  Beta virt. eigenvalues --    0.82428   0.83406   0.84960   0.88227   0.88842
  Beta virt. eigenvalues --    0.90273   0.92129   0.93979   0.94570   0.96175
  Beta virt. eigenvalues --    0.97754   0.98394   0.99122   1.01700   1.03124
  Beta virt. eigenvalues --    1.05376   1.05927   1.09486   1.12812   1.14178
  Beta virt. eigenvalues --    1.16125   1.16443   1.17898   1.18567   1.21897
  Beta virt. eigenvalues --    1.23146   1.25102   1.27714   1.28627   1.29141
  Beta virt. eigenvalues --    1.31756   1.38824   1.42269   1.46775   1.47733
  Beta virt. eigenvalues --    1.48402   1.51790   1.52189   1.58518   1.58728
  Beta virt. eigenvalues --    1.61563   1.62043   1.65584   1.67187   1.73720
  Beta virt. eigenvalues --    1.75829   1.76539   1.76827   1.79630   1.81618
  Beta virt. eigenvalues --    1.82490   1.84537   1.86073   1.88104   1.90758
  Beta virt. eigenvalues --    1.90964   1.93425   1.93944   1.97637   2.00207
  Beta virt. eigenvalues --    2.02095   2.04874   2.13191   2.14215   2.20135
  Beta virt. eigenvalues --    2.22360   2.22856   2.29282   2.30814   2.33238
  Beta virt. eigenvalues --    2.33995   2.34096   2.37211   2.41513   2.48290
  Beta virt. eigenvalues --    2.54036   2.56137   2.59987   2.64677   2.66101
  Beta virt. eigenvalues --    2.71333   2.72472   2.74855   2.76097   2.80899
  Beta virt. eigenvalues --    2.84504   2.87372   2.89006   2.99352   3.00183
  Beta virt. eigenvalues --    3.00830   3.01614   3.04513   3.06720   3.09775
  Beta virt. eigenvalues --    3.10458   3.16153   3.17299   3.18994   3.20409
  Beta virt. eigenvalues --    3.22468   3.24297   3.26219   3.30399   3.31684
  Beta virt. eigenvalues --    3.36968   3.38338   3.38592   3.40897   3.42990
  Beta virt. eigenvalues --    3.45921   3.48579   3.56246   3.57920   3.58153
  Beta virt. eigenvalues --    3.60376   3.69966   3.74866   3.79478   3.85149
  Beta virt. eigenvalues --    3.98356   4.07031   4.17179   4.27511   4.72236
  Beta virt. eigenvalues --    4.79096   4.88376   5.01377   5.04072   5.12609
  Beta virt. eigenvalues --    5.20110   5.26189   5.58929   5.71603   5.80993
  Beta virt. eigenvalues --   23.31241  23.58648  23.84978  23.87885  23.93144
  Beta virt. eigenvalues --   23.96404  24.04353  24.08449  24.15653  24.28226
  Beta virt. eigenvalues --   49.94491  50.09187  50.11105
          Condensed to atoms (all electrons):
               1          2          3          4          5          6
     1  O    8.101325  -0.045512   0.000000  -0.060868   0.006492   0.349515
     2  O   -0.045512   8.076532   0.000000  -0.141847   0.008850   0.019527
     3  O    0.000000   0.000000   7.955607   0.009295  -0.171179   0.000053
     4  C   -0.060868  -0.141847   0.009295   6.190189   0.237845   0.105736
     5  C    0.006492   0.008850  -0.171179   0.237845   5.898153   0.002318
     6  C    0.349515   0.019527   0.000053   0.105736   0.002318   5.002908
     7  C   -0.012297   0.574533  -0.000989   0.082925   0.051876  -0.116426
     8  C   -0.000474   0.000067   0.023424  -0.084578   0.286103  -0.057270
     9  C    0.000034  -0.000548   0.676275   0.044622   0.057811   0.011204
    10  C   -0.054828   0.002673  -0.000075  -0.080941  -0.036227   0.417886
    11  C    0.003992  -0.000126   0.002179  -0.042306  -0.052615  -0.017822
    12  C    0.000152  -0.084883   0.009763  -0.050309  -0.061152   0.017949
    13  C   -0.000017   0.007199  -0.106732  -0.075093  -0.073355  -0.004758
    14  H    0.000007   0.000003   0.019676   0.004950  -0.059804  -0.001364
    15  H    0.002033   0.000078  -0.000001   0.012387  -0.001556  -0.044022
    16  H   -0.000098  -0.000002  -0.000018  -0.001484   0.007776   0.007922
    17  H    0.000048   0.008247  -0.000185   0.017302  -0.003086  -0.000313
    18  H   -0.000001  -0.000161   0.009520  -0.003753   0.018765  -0.000013
    19  H    0.231842   0.072634  -0.000001  -0.011741  -0.000270  -0.036365
               7          8          9         10         11         12
     1  O   -0.012297  -0.000474   0.000034  -0.054828   0.003992   0.000152
     2  O    0.574533   0.000067  -0.000548   0.002673  -0.000126  -0.084883
     3  O   -0.000989   0.023424   0.676275  -0.000075   0.002179   0.009763
     4  C    0.082925  -0.084578   0.044622  -0.080941  -0.042306  -0.050309
     5  C    0.051876   0.286103   0.057811  -0.036227  -0.052615  -0.061152
     6  C   -0.116426  -0.057270   0.011204   0.417886  -0.017822   0.017949
     7  C    4.730623   0.012631  -0.057163   0.009774  -0.001976   0.448027
     8  C    0.012631   5.176211  -0.062798  -0.034493   0.450319  -0.005486
     9  C   -0.057163  -0.062798   4.728634  -0.001499   0.012665  -0.014680
    10  C    0.009774  -0.034493  -0.001499   5.103969   0.489738   0.000038
    11  C   -0.001976   0.450319   0.012665   0.489738   5.041801   0.000057
    12  C    0.448027  -0.005486  -0.014680   0.000038   0.000057   5.277436
    13  C   -0.019207   0.024955   0.409167   0.000093  -0.000154   0.394713
    14  H    0.000223   0.390068  -0.003736   0.006068  -0.030012  -0.000353
    15  H    0.000001   0.006107  -0.000018   0.380889  -0.031913  -0.000003
    16  H   -0.000041  -0.041737  -0.000177  -0.039136   0.400411   0.000003
    17  H   -0.048339   0.000060   0.006704  -0.000026   0.000010   0.373521
    18  H    0.008357  -0.000459  -0.050147   0.000010  -0.000021  -0.033681
    19  H   -0.007438   0.000030   0.000047   0.006158  -0.000250   0.002901
              13         14         15         16         17         18
     1  O   -0.000017   0.000007   0.002033  -0.000098   0.000048  -0.000001
     2  O    0.007199   0.000003   0.000078  -0.000002   0.008247  -0.000161
     3  O   -0.106732   0.019676  -0.000001  -0.000018  -0.000185   0.009520
     4  C   -0.075093   0.004950   0.012387  -0.001484   0.017302  -0.003753
     5  C   -0.073355  -0.059804  -0.001556   0.007776  -0.003086   0.018765
     6  C   -0.004758  -0.001364  -0.044022   0.007922  -0.000313  -0.000013
     7  C   -0.019207   0.000223   0.000001  -0.000041  -0.048339   0.008357
     8  C    0.024955   0.390068   0.006107  -0.041737   0.000060  -0.000459
     9  C    0.409167  -0.003736  -0.000018  -0.000177   0.006704  -0.050147
    10  C    0.000093   0.006068   0.380889  -0.039136  -0.000026   0.000010
    11  C   -0.000154  -0.030012  -0.031913   0.400411   0.000010  -0.000021
    12  C    0.394713  -0.000353  -0.000003   0.000003   0.373521  -0.033681
    13  C    5.378877   0.002408   0.000004  -0.000008  -0.030813   0.373585
    14  H    0.002408   0.385928  -0.000109  -0.004572   0.000004  -0.000059
    15  H    0.000004  -0.000109   0.387556  -0.005299  -0.000001   0.000000
    16  H   -0.000008  -0.004572  -0.005299   0.397862   0.000000  -0.000001
    17  H   -0.030813   0.000004  -0.000001   0.000000   0.443344  -0.010088
    18  H    0.373585  -0.000059   0.000000  -0.000001  -0.010088   0.446466
    19  H   -0.000347  -0.000002   0.000120   0.000010  -0.000064   0.000010
              19
     1  O    0.231842
     2  O    0.072634
     3  O   -0.000001
     4  C   -0.011741
     5  C   -0.000270
     6  C   -0.036365
     7  C   -0.007438
     8  C    0.000030
     9  C    0.000047
    10  C    0.006158
    11  C   -0.000250
    12  C    0.002901
    13  C   -0.000347
    14  H   -0.000002
    15  H    0.000120
    16  H    0.000010
    17  H   -0.000064
    18  H    0.000010
    19  H    0.277357
          Atomic-Atomic Spin Densities.
               1          2          3          4          5          6
     1  O    0.289021   0.001223  -0.000000  -0.000532   0.000011  -0.070650
     2  O    0.001223   0.311167  -0.000000  -0.007112   0.000636   0.001005
     3  O   -0.000000  -0.000000   0.377657   0.000580  -0.008627  -0.000012
     4  C   -0.000532  -0.007112   0.000580   0.124472  -0.078382   0.030036
     5  C    0.000011   0.000636  -0.008627  -0.078382   0.153104  -0.004702
     6  C   -0.070650   0.001005  -0.000012   0.030036  -0.004702   0.173086
     7  C    0.001195  -0.076026   0.000171   0.060653  -0.013366  -0.003666
     8  C    0.000209  -0.000019   0.000753  -0.007624   0.004457  -0.005871
     9  C   -0.000010   0.000134  -0.075210  -0.010784   0.072378  -0.000118
    10  C   -0.009081  -0.000004  -0.000001  -0.006449   0.002123   0.076728
    11  C    0.000165  -0.000001  -0.000016   0.003329  -0.009213  -0.007802
    12  C    0.000020  -0.006548   0.000381   0.005651  -0.007129  -0.000397
    13  C    0.000001   0.000535  -0.007442  -0.005734   0.010848   0.000111
    14  H    0.000000  -0.000000  -0.000593   0.000144  -0.000014  -0.000009
    15  H    0.000003  -0.000002   0.000000  -0.000317   0.000100   0.000671
    16  H   -0.000001   0.000000   0.000001   0.000051  -0.000107  -0.000080
    17  H   -0.000002  -0.000142   0.000004  -0.000476   0.000129  -0.000015
    18  H    0.000000   0.000002  -0.000238   0.000137  -0.000607   0.000004
    19  H   -0.002053  -0.001937   0.000000   0.000049  -0.000048   0.001207
               7          8          9         10         11         12
     1  O    0.001195   0.000209  -0.000010  -0.009081   0.000165   0.000020
     2  O   -0.076026  -0.000019   0.000134  -0.000004  -0.000001  -0.006548
     3  O    0.000171   0.000753  -0.075210  -0.000001  -0.000016   0.000381
     4  C    0.060653  -0.007624  -0.010784  -0.006449   0.003329   0.005651
     5  C   -0.013366   0.004457   0.072378   0.002123  -0.009213  -0.007129
     6  C   -0.003666  -0.005871  -0.000118   0.076728  -0.007802  -0.000397
     7  C    0.085253   0.000123  -0.002936  -0.001084   0.000308   0.052132
     8  C    0.000123   0.454227  -0.010623  -0.020103   0.050489   0.000289
     9  C   -0.002936  -0.010623   0.033630   0.000256  -0.000821  -0.005700
    10  C   -0.001084  -0.020103   0.000256   0.279566  -0.052624  -0.000052
    11  C    0.000308   0.050489  -0.000821  -0.052624  -0.071773   0.000029
    12  C    0.052132   0.000289  -0.005700  -0.000052   0.000029   0.065910
    13  C   -0.007171  -0.000845   0.052105   0.000033  -0.000056  -0.053058
    14  H   -0.000009  -0.002651  -0.000534   0.000014  -0.000548   0.000011
    15  H   -0.000021  -0.000111   0.000003  -0.002600  -0.000110   0.000000
    16  H    0.000004  -0.000876   0.000000  -0.000974   0.001333  -0.000000
    17  H    0.000397   0.000001  -0.000100   0.000002  -0.000001   0.000498
    18  H   -0.000141  -0.000007   0.000546  -0.000001   0.000002  -0.000647
    19  H    0.000340   0.000004   0.000001  -0.000171  -0.000003  -0.000066
              13         14         15         16         17         18
     1  O    0.000001   0.000000   0.000003  -0.000001  -0.000002   0.000000
     2  O    0.000535  -0.000000  -0.000002   0.000000  -0.000142   0.000002
     3  O   -0.007442  -0.000593   0.000000   0.000001   0.000004  -0.000238
     4  C   -0.005734   0.000144  -0.000317   0.000051  -0.000476   0.000137
     5  C    0.010848  -0.000014   0.000100  -0.000107   0.000129  -0.000607
     6  C    0.000111  -0.000009   0.000671  -0.000080  -0.000015   0.000004
     7  C   -0.007171  -0.000009  -0.000021   0.000004   0.000397  -0.000141
     8  C   -0.000845  -0.002651  -0.000111  -0.000876   0.000001  -0.000007
     9  C    0.052105  -0.000534   0.000003   0.000000  -0.000100   0.000546
    10  C    0.000033   0.000014  -0.002600  -0.000974   0.000002  -0.000001
    11  C   -0.000056  -0.000548  -0.000110   0.001333  -0.000001   0.000002
    12  C   -0.053058   0.000011   0.000000  -0.000000   0.000498  -0.000647
    13  C    0.081911  -0.000072  -0.000000   0.000001  -0.000751   0.000534
    14  H   -0.000072  -0.014313   0.000008  -0.000002  -0.000000   0.000002
    15  H   -0.000000   0.000008  -0.010475   0.000033   0.000000  -0.000000
    16  H    0.000001  -0.000002   0.000033   0.000786  -0.000000   0.000000
    17  H   -0.000751  -0.000000   0.000000  -0.000000  -0.003834   0.000154
    18  H    0.000534   0.000002  -0.000000   0.000000   0.000154  -0.004485
    19  H    0.000005   0.000000  -0.000004  -0.000000   0.000004  -0.000000
              19
     1  O   -0.002053
     2  O   -0.001937
     3  O    0.000000
     4  C    0.000049
     5  C   -0.000048
     6  C    0.001207
     7  C    0.000340
     8  C    0.000004
     9  C    0.000001
    10  C   -0.000171
    11  C   -0.000003
    12  C   -0.000066
    13  C    0.000005
    14  H    0.000000
    15  H   -0.000004
    16  H   -0.000000
    17  H    0.000004
    18  H   -0.000000
    19  H   -0.006616
 Mulliken charges and spin densities:
               1          2
     1  O   -0.521345   0.209518
     2  O   -0.497266   0.222911
     3  O   -0.426614   0.287408
     4  C   -0.152335   0.107691
     5  C   -0.116746   0.121593
     6  C    0.343334   0.189528
     7  C    0.344905   0.096156
     8  C   -0.082680   0.461822
     9  C    0.243602   0.052217
    10  C   -0.170070   0.265578
    11  C   -0.223977  -0.087313
    12  C   -0.274013   0.051325
    13  C   -0.280517   0.070953
    14  H    0.290675  -0.018565
    15  H    0.293746  -0.012821
    16  H    0.278587   0.000169
    17  H    0.243675  -0.004132
    18  H    0.241670  -0.004747
    19  H    0.465367  -0.009290
 Sum of Mulliken charges =  -0.00000   2.00000
 Mulliken charges and spin densities with hydrogens summed into heavy atoms:
               1          2
     1  O   -0.055978   0.200228
     2  O   -0.497266   0.222911
     3  O   -0.426614   0.287408
     4  C   -0.152335   0.107691
     5  C   -0.116746   0.121593
     6  C    0.343334   0.189528
     7  C    0.344905   0.096156
     8  C    0.207996   0.443257
     9  C    0.243602   0.052217
    10  C    0.123676   0.252757
    11  C    0.054611  -0.087145
    12  C   -0.030339   0.047193
    13  C   -0.038846   0.066206
 Electronic spatial extent (au):  <R**2>=           2053.9679
 Charge=             -0.0000 electrons
 Dipole moment (field-independent basis, Debye):
    X=              5.2795    Y=              4.5177    Z=              0.0154  Tot=              6.9487
 Quadrupole moment (field-independent basis, Debye-Ang):
   XX=            -81.9655   YY=            -66.8217   ZZ=            -75.4994
   XY=             14.2588   XZ=             -0.1103   YZ=              0.4572
 Traceless Quadrupole moment (field-independent basis, Debye-Ang):
   XX=             -7.2033   YY=              7.9405   ZZ=             -0.7372
   XY=             14.2588   XZ=             -0.1103   YZ=              0.4572
 Octapole moment (field-independent basis, Debye-Ang**2):
  XXX=             57.9998  YYY=             49.5770  ZZZ=              0.0228  XYY=              6.1622
  XXY=            -17.8689  XXZ=             -0.3793  XZZ=              2.8675  YZZ=             -3.8646
  YYZ=              0.5146  XYZ=             -0.5175
 Hexadecapole moment (field-independent basis, Debye-Ang**3):
 XXXX=          -1523.6847 YYYY=          -1080.3287 ZZZZ=            -78.1585 XXXY=             60.4712
 XXXZ=              9.4582 YYYX=             27.9727 YYYZ=             -1.3088 ZZZX=              8.1137
 ZZZY=             -6.8784 XXYY=           -393.2355 XXZZ=           -253.8543 YYZZ=           -223.3847
 XXYZ=             -2.4286 YYXZ=              1.1905 ZZXY=            -27.4918
 N-N= 7.349381152234D+02 E-N=-2.895178215840D+03  KE= 6.083236740683D+02
                          Isotropic Fermi Contact Couplings
        Atom                 a.u.       MegaHertz       Gauss      10(-4) cm-1
     1  O(17)              0.00258      -0.78166      -0.27892      -0.26073
     2  O(17)              0.06547     -19.84458      -7.08104      -6.61944
     3  O(17)              0.06777     -20.53955      -7.32902      -6.85126
     4  C(13)              0.02329      13.08961       4.67070       4.36622
     5  C(13)              0.03369      18.93424       6.75621       6.31578
     6  C(13)             -0.03312     -18.61808      -6.64340      -6.21032
     7  C(13)             -0.01047      -5.88703      -2.10064      -1.96370
     8  C(13)             -0.05982     -33.62379     -11.99780     -11.21569
     9  C(13)             -0.01880     -10.57010      -3.77167      -3.52581
    10  C(13)              0.05111      28.73147      10.25210       9.58379
    11  C(13)              0.01844      10.36272       3.69768       3.45663
    12  C(13)             -0.00194      -1.09200      -0.38965      -0.36425
    13  C(13)              0.00395       2.22007       0.79218       0.74054
    14  H(1)               0.00094       2.11200       0.75361       0.70449
    15  H(1)              -0.00715     -15.96973      -5.69840      -5.32693
    16  H(1)              -0.00442      -9.86730      -3.52090      -3.29138
    17  H(1)              -0.00049      -1.09562      -0.39094      -0.36546
    18  H(1)              -0.00107      -2.39616      -0.85501      -0.79927
    19  H(1)              -0.00039      -0.86611      -0.30905      -0.28890
 --------------------------------------------------------
       Center         ----  Spin Dipole Couplings  ----
                      3XX-RR        3YY-RR        3ZZ-RR
 --------------------------------------------------------
     1   Atom       -0.047213     -0.048451      0.095664
     2   Atom       -0.607452     -0.612573      1.220025
     3   Atom       -0.647034     -0.597205      1.244239
     4   Atom       -0.177997     -0.174831      0.352828
     5   Atom       -0.186462     -0.202829      0.389292
     6   Atom        0.012825      0.016202     -0.029027
     7   Atom       -0.041644     -0.028973      0.070617
     8   Atom        0.054313      0.057137     -0.111451
     9   Atom       -0.002924     -0.027601      0.030525
    10   Atom       -0.230145     -0.233011      0.463156
    11   Atom       -0.138184     -0.134968      0.273152
    12   Atom       -0.019834     -0.015348      0.035182
    13   Atom       -0.033567     -0.024151      0.057719
    14   Atom        0.003961      0.006032     -0.009993
    15   Atom        0.034091     -0.024452     -0.009639
    16   Atom       -0.020242      0.029676     -0.009434
    17   Atom       -0.000010      0.006281     -0.006271
    18   Atom        0.005465      0.001206     -0.006672
    19   Atom        0.008418      0.003636     -0.012054
 --------------------------------------------------------
                        XY            XZ            YZ
 --------------------------------------------------------
     1   Atom        0.001801     -0.000215     -0.007620
     2   Atom        0.037676     -0.133757     -0.122068
     3   Atom        0.102234      0.187482      0.265623
     4   Atom       -0.001030      0.059320      0.037301
     5   Atom        0.005240     -0.070070     -0.060689
     6   Atom        0.002970     -0.002667     -0.001980
     7   Atom       -0.016075     -0.000723      0.001632
     8   Atom        0.004030     -0.006663     -0.001269
     9   Atom       -0.015311     -0.006623     -0.003441
    10   Atom       -0.001980      0.036737     -0.033457
    11   Atom       -0.004956      0.031307      0.007080
    12   Atom        0.007325     -0.002838     -0.007314
    13   Atom        0.008855      0.003195      0.006682
    14   Atom        0.004064     -0.000784      0.000405
    15   Atom        0.018876     -0.001354     -0.001558
    16   Atom        0.002391      0.000658     -0.000653
    17   Atom        0.007462      0.000266      0.000582
    18   Atom        0.008933      0.000024      0.000147
    19   Atom        0.005602     -0.000188      0.000361
 --------------------------------------------------------


 ---------------------------------------------------------------------------------
              Anisotropic Spin Dipole Couplings in Principal Axis System
 ---------------------------------------------------------------------------------

       Atom             a.u.   MegaHertz   Gauss  10(-4) cm-1        Axes

              Baa    -0.0500     3.618     1.291     1.207 -0.5400  0.8406  0.0432
     1 O(17)  Bbb    -0.0461     3.333     1.189     1.112  0.8417  0.5391  0.0303
              Bcc     0.0961    -6.951    -2.480    -2.319 -0.0022 -0.0527  0.9986
 
              Baa    -0.6478    46.873    16.725    15.635 -0.6853  0.7283 -0.0015
     2 O(17)  Bbb    -0.5904    42.718    15.243    14.249  0.7245  0.6820  0.0995
              Bcc     1.2381   -89.591   -31.968   -29.884 -0.0735 -0.0671  0.9950
 
              Baa    -0.7275    52.644    18.785    17.560  0.7754 -0.6313  0.0113
     3 O(17)  Bbb    -0.5748    41.592    14.841    13.873  0.6231  0.7622 -0.1755
              Bcc     1.3023   -94.236   -33.626   -31.434  0.1022  0.1432  0.9844
 
              Baa    -0.1872   -25.120    -8.964    -8.379  0.8785  0.4601 -0.1283
     4 C(13)  Bbb    -0.1747   -23.446    -8.366    -7.821 -0.4651  0.8852 -0.0103
              Bcc     0.3619    48.566    17.330    16.200  0.1088  0.0687  0.9917
 
              Baa    -0.2092   -28.076   -10.018    -9.365  0.1262  0.9853  0.1147
     5 C(13)  Bbb    -0.1946   -26.111    -9.317    -8.710  0.9849 -0.1383  0.1038
              Bcc     0.4038    54.187    19.335    18.075 -0.1182 -0.0999  0.9880
 
              Baa    -0.0293    -3.927    -1.401    -1.310  0.0604  0.0395  0.9974
     6 C(13)  Bbb     0.0111     1.495     0.533     0.499  0.8567 -0.5148 -0.0315
              Bcc     0.0181     2.433     0.868     0.811  0.5122  0.8564 -0.0649
 
              Baa    -0.0526    -7.057    -2.518    -2.354  0.8266  0.5628 -0.0026
     7 C(13)  Bbb    -0.0181    -2.424    -0.865    -0.809 -0.5628  0.8264 -0.0198
              Bcc     0.0707     9.481     3.383     3.163 -0.0090  0.0178  0.9998
 
              Baa    -0.1117   -14.992    -5.350    -5.001  0.0399  0.0066  0.9992
     8 C(13)  Bbb     0.0516     6.923     2.470     2.309  0.8057 -0.5916 -0.0283
              Bcc     0.0601     8.070     2.880     2.692  0.5910  0.8062 -0.0289
 
              Baa    -0.0355    -4.760    -1.698    -1.588  0.4390  0.8939  0.0907
     9 C(13)  Bbb     0.0037     0.493     0.176     0.165  0.8796 -0.4482  0.1595
              Bcc     0.0318     4.266     1.522     1.423 -0.1832 -0.0097  0.9830
 
              Baa    -0.2346   -31.486   -11.235   -10.502  0.0851  0.9954  0.0432
    10 C(13)  Bbb    -0.2321   -31.141   -11.112   -10.388  0.9950 -0.0826 -0.0566
              Bcc     0.4667    62.627    22.347    20.890  0.0527 -0.0478  0.9975
 
              Baa    -0.1439   -19.315    -6.892    -6.443  0.8476  0.5256 -0.0725
    11 C(13)  Bbb    -0.1317   -17.672    -6.306    -5.895 -0.5252  0.8506  0.0257
              Bcc     0.2756    36.987    13.198    12.338  0.0752  0.0163  0.9970
 
              Baa    -0.0253    -3.399    -1.213    -1.134  0.7927 -0.6085 -0.0364
    12 C(13)  Bbb    -0.0112    -1.497    -0.534    -0.499  0.6057  0.7794  0.1601
              Bcc     0.0365     4.896     1.747     1.633 -0.0691 -0.1490  0.9864
 
              Baa    -0.0389    -5.219    -1.862    -1.741  0.8557 -0.5174  0.0075
    13 C(13)  Bbb    -0.0195    -2.621    -0.935    -0.874  0.5157  0.8515 -0.0950
              Bcc     0.0584     7.840     2.798     2.615  0.0428  0.0851  0.9955
 
              Baa    -0.0101    -5.369    -1.916    -1.791  0.0679 -0.0422  0.9968
    14 H(1)   Bbb     0.0009     0.465     0.166     0.155  0.7861 -0.6129 -0.0795
              Bcc     0.0092     4.904     1.750     1.636  0.6143  0.7890 -0.0084
 
              Baa    -0.0301   -16.045    -5.725    -5.352 -0.2808  0.9582  0.0545
    15 H(1)   Bbb    -0.0096    -5.143    -1.835    -1.716  0.0492 -0.0423  0.9979
              Bcc     0.0397    21.188     7.560     7.068  0.9585  0.2828 -0.0352
 
              Baa    -0.0204   -10.884    -3.884    -3.631  0.9969 -0.0484 -0.0627
    16 H(1)   Bbb    -0.0094    -5.016    -1.790    -1.673  0.0634  0.0128  0.9979
              Bcc     0.0298    15.900     5.673     5.304  0.0475  0.9987 -0.0158
 
              Baa    -0.0063    -3.362    -1.200    -1.122  0.0424 -0.0713  0.9966
    17 H(1)   Bbb    -0.0050    -2.643    -0.943    -0.882  0.8325 -0.5490 -0.0747
              Bcc     0.0113     6.006     2.143     2.003  0.5524  0.8328  0.0361
 
              Baa    -0.0067    -3.567    -1.273    -1.190  0.0692 -0.0969  0.9929
    18 H(1)   Bbb    -0.0058    -3.114    -1.111    -1.039 -0.6159  0.7788  0.1189
              Bcc     0.0125     6.680     2.384     2.228  0.7848  0.6197  0.0057
 
              Baa    -0.0121    -6.439    -2.298    -2.148  0.0171 -0.0291  0.9994
    19 H(1)   Bbb    -0.0001    -0.027    -0.010    -0.009 -0.5509  0.8339  0.0337
              Bcc     0.0121     6.466     2.307     2.157  0.8344  0.5512  0.0017
 

 ---------------------------------------------------------------------------------

 D1PCM: PCM CHGder 1st derivatives, ID1Alg=3 FixD1E=F DoIter=F DoCFld=F I1PDM=6.
 Calling FoFJK, ICntrl=  10005127 FMM=F ISym2X=0 I1Cent= 0 IOpClX= 1 NMat=1 NMatS=1 NMatT=0.
 -------------------------------------------------------------------
 Center     Atomic                   Forces (Hartrees/Bohr)
 Number     Number              X              Y              Z
 -------------------------------------------------------------------
      1        8          -0.022338537    0.010043835    0.001785313
      2        8           0.032308457   -0.024880136   -0.001445058
      3        8          -0.017570066    0.025132628    0.002582089
      4        6           0.030958952   -0.057563077    0.001794562
      5        6          -0.054460455    0.042976136   -0.002026398
      6        6           0.039508633   -0.012836608   -0.006634085
      7        6          -0.035040000    0.019254452    0.004410468
      8        6           0.021171952    0.020370934    0.003956047
      9        6           0.014640888   -0.030107314   -0.006603611
     10        6           0.032363611   -0.028562060   -0.000918374
     11        6          -0.065741899    0.018075641    0.003410792
     12        6           0.028961492   -0.000585400   -0.001256756
     13        6          -0.004618605    0.026053699    0.002391250
     14        1           0.001943636   -0.005829058   -0.000661966
     15        1          -0.002260115   -0.004623270    0.001202680
     16        1          -0.000606484   -0.003652007   -0.001849874
     17        1           0.002130369   -0.000330850   -0.000638967
     18        1          -0.000248145    0.001436350    0.000752303
     19        1          -0.001103681    0.005626107   -0.000250415
 -------------------------------------------------------------------
 Cartesian Forces:  Max     0.065741899 RMS     0.021329943

 GradGradGradGradGradGradGradGradGradGradGradGradGradGradGradGradGradGrad
 Berny optimization.
 FormGI is forming the generalized inverse of G from B-inverse, IUseBI=4.
 Internal  Forces:  Max     0.063518274 RMS     0.011842135
 Search for a local minimum.
 Step number   1 out of a maximum of  107
 All quantities printed in internal units (Hartrees-Bohrs-Radians)
 Mixed Optimization -- RFO/linear search
 Second derivative matrix not updated -- first step.
 ITU=  0
     Eigenvalues ---    0.01082   0.01098   0.01113   0.01622   0.01680
     Eigenvalues ---    0.01882   0.01964   0.01995   0.02096   0.02106
     Eigenvalues ---    0.02113   0.02117   0.02152   0.02153   0.02163
     Eigenvalues ---    0.02332   0.15999   0.16000   0.16000   0.16000
     Eigenvalues ---    0.16000   0.16000   0.22095   0.22426   0.23526
     Eigenvalues ---    0.24505   0.24909   0.24988   0.24997   0.25000
     Eigenvalues ---    0.25000   0.33339   0.34143   0.34873   0.35072
     Eigenvalues ---    0.35087   0.35157   0.35175   0.35500   0.35520
     Eigenvalues ---    0.40924   0.41934   0.45284   0.45949   0.46056
     Eigenvalues ---    0.46534   0.50633   0.51083   0.56688   0.91814
     Eigenvalues ---    0.93535
 RFO step:  Lambda=-2.77912833D-02 EMin= 1.08157952D-02
 Linear search not attempted -- first point.
 Iteration  1 RMS(Cart)=  0.03894614 RMS(Int)=  0.00047565
 Iteration  2 RMS(Cart)=  0.00044299 RMS(Int)=  0.00029137
 Iteration  3 RMS(Cart)=  0.00000015 RMS(Int)=  0.00029137
 Variable       Old X    -DE/DX   Delta X   Delta X   Delta X     New X
                                 (Linear)    (Quad)   (Total)
    R1        2.58788  -0.02818   0.00000  -0.05232  -0.05232   2.53555
    R2        1.85932  -0.00498   0.00000  -0.00933  -0.00933   1.84999
    R3        2.32108   0.04065   0.00000   0.04297   0.04297   2.36405
    R4        2.31345   0.02955   0.00000   0.03068   0.03068   2.34413
    R5        2.63784   0.06352   0.00000   0.13452   0.13427   2.77211
    R6        2.64655   0.00513   0.00000   0.01317   0.01325   2.65980
    R7        2.78453  -0.01267   0.00000  -0.03157  -0.03172   2.75281
    R8        2.64851  -0.00228   0.00000  -0.00475  -0.00494   2.64357
    R9        2.78913  -0.01305   0.00000  -0.03281  -0.03282   2.75631
   R10        2.63365  -0.00427   0.00000  -0.00862  -0.00843   2.62522
   R11        2.78549  -0.01559   0.00000  -0.04272  -0.04271   2.74277
   R12        2.63658  -0.02931   0.00000  -0.06210  -0.06219   2.57439
   R13        2.05881  -0.00533   0.00000  -0.01417  -0.01417   2.04465
   R14        2.79001  -0.01210   0.00000  -0.03383  -0.03368   2.75633
   R15        2.63648   0.05129   0.00000   0.10172   0.10183   2.73831
   R16        2.05534  -0.00369   0.00000  -0.00974  -0.00974   2.04560
   R17        2.05558  -0.00373   0.00000  -0.00986  -0.00986   2.04572
   R18        2.52228   0.02678   0.00000   0.04169   0.04183   2.56411
   R19        2.04839  -0.00001   0.00000  -0.00002  -0.00002   2.04837
   R20        2.04871  -0.00019   0.00000  -0.00050  -0.00050   2.04821
    A1        1.89403  -0.00528   0.00000  -0.02809  -0.02809   1.86594
    A2        2.08391  -0.00413   0.00000  -0.00871  -0.00867   2.07524
    A3        2.09339   0.00411   0.00000   0.01738   0.01714   2.11053
    A4        2.10588   0.00002   0.00000  -0.00868  -0.00851   2.09737
    A5        2.09766   0.00307   0.00000   0.01270   0.01234   2.11000
    A6        2.10358  -0.00242   0.00000  -0.00382  -0.00380   2.09978
    A7        2.08179  -0.00063   0.00000  -0.00861  -0.00839   2.07340
    A8        2.15073  -0.00078   0.00000  -0.00549  -0.00566   2.14506
    A9        2.03016   0.00898   0.00000   0.02966   0.02949   2.05964
   A10        2.10229  -0.00819   0.00000  -0.02411  -0.02394   2.07835
   A11        2.11055   0.00176   0.00000   0.00623   0.00618   2.11673
   A12        2.10603   0.00913   0.00000   0.03276   0.03268   2.13871
   A13        2.06661  -0.01089   0.00000  -0.03898  -0.03924   2.02737
   A14        2.09428  -0.00300   0.00000  -0.01635  -0.01675   2.07753
   A15        2.10155  -0.00169   0.00000  -0.00886  -0.00874   2.09281
   A16        2.08734   0.00469   0.00000   0.02508   0.02519   2.11253
   A17        2.12969  -0.00513   0.00000  -0.01834  -0.01881   2.11088
   A18        2.09690   0.01381   0.00000   0.04986   0.04930   2.14620
   A19        2.05650  -0.00865   0.00000  -0.03080  -0.03103   2.02546
   A20        2.09436   0.00432   0.00000   0.01331   0.01355   2.10791
   A21        2.09184  -0.00586   0.00000  -0.02636  -0.02648   2.06536
   A22        2.09698   0.00154   0.00000   0.01305   0.01293   2.10992
   A23        2.09332   0.00793   0.00000   0.02277   0.02271   2.11603
   A24        2.09641  -0.00378   0.00000  -0.01039  -0.01037   2.08603
   A25        2.09344  -0.00416   0.00000  -0.01244  -0.01243   2.08101
   A26        2.12008   0.00900   0.00000   0.02846   0.02863   2.14871
   A27        2.03496  -0.00671   0.00000  -0.02594  -0.02603   2.00893
   A28        2.12812  -0.00230   0.00000  -0.00249  -0.00258   2.12555
   A29        2.12530   0.00886   0.00000   0.02782   0.02814   2.15344
   A30        2.02948  -0.00592   0.00000  -0.02186  -0.02203   2.00745
   A31        2.12841  -0.00293   0.00000  -0.00596  -0.00612   2.12229
    D1       -0.03514   0.00073   0.00000   0.01488   0.01498  -0.02016
    D2        3.11027  -0.00030   0.00000  -0.00596  -0.00607   3.10420
    D3       -0.03037  -0.00141   0.00000  -0.02722  -0.02728  -0.05765
    D4        3.09229  -0.00063   0.00000  -0.01079  -0.01082   3.08147
    D5        3.11279  -0.00107   0.00000  -0.01961  -0.01960   3.09319
    D6       -0.04774  -0.00029   0.00000  -0.00319  -0.00315  -0.05089
    D7       -3.13120   0.00001   0.00000   0.00284   0.00287  -3.12832
    D8        0.00643   0.00112   0.00000   0.02463   0.02425   0.03068
    D9        0.00882  -0.00032   0.00000  -0.00479  -0.00472   0.00410
   D10       -3.13674   0.00079   0.00000   0.01699   0.01666  -3.12008
   D11       -3.10084  -0.00125   0.00000  -0.02754  -0.02724  -3.12808
   D12        0.04041  -0.00001   0.00000   0.00192   0.00180   0.04221
   D13        0.04234  -0.00091   0.00000  -0.01984  -0.01947   0.02287
   D14       -3.09959   0.00033   0.00000   0.00962   0.00957  -3.09003
   D15        0.02938   0.00101   0.00000   0.02151   0.02129   0.05067
   D16       -3.11965   0.00001   0.00000   0.00186   0.00199  -3.11766
   D17       -3.09351   0.00026   0.00000   0.00525   0.00504  -3.08847
   D18        0.04064  -0.00074   0.00000  -0.01441  -0.01427   0.02637
   D19       -3.10047  -0.00197   0.00000  -0.04270  -0.04160   3.14112
   D20        0.02562   0.00028   0.00000   0.01149   0.01128   0.03691
   D21        0.02236  -0.00116   0.00000  -0.02619  -0.02526  -0.00290
   D22       -3.13474   0.00110   0.00000   0.02799   0.02762  -3.10712
   D23       -3.12665   0.00000   0.00000   0.00258   0.00252  -3.12413
   D24        0.01279   0.00006   0.00000   0.00370   0.00376   0.01655
   D25        0.01864  -0.00101   0.00000  -0.01768  -0.01774   0.00091
   D26       -3.12510  -0.00096   0.00000  -0.01657  -0.01650   3.14158
   D27        3.13089   0.00047   0.00000   0.01606   0.01631  -3.13599
   D28       -0.01693   0.00071   0.00000   0.02237   0.02279   0.00586
   D29       -0.01037  -0.00076   0.00000  -0.01332  -0.01313  -0.02350
   D30        3.12500  -0.00053   0.00000  -0.00701  -0.00664   3.11835
   D31       -0.00417  -0.00078   0.00000  -0.01403  -0.01394  -0.01811
   D32        3.12985  -0.00124   0.00000  -0.02258  -0.02247   3.10738
   D33       -3.13839   0.00024   0.00000   0.00561   0.00574  -3.13265
   D34       -0.00436  -0.00023   0.00000  -0.00294  -0.00280  -0.00716
   D35        3.13126   0.00089   0.00000   0.02913   0.03013  -3.12180
   D36       -0.00983   0.00105   0.00000   0.03343   0.03441   0.02458
   D37        0.00487  -0.00115   0.00000  -0.02338  -0.02328  -0.01841
   D38       -3.13622  -0.00099   0.00000  -0.01908  -0.01900   3.12796
   D39       -0.01972   0.00040   0.00000   0.01131   0.01153  -0.00819
   D40        3.12943   0.00086   0.00000   0.01984   0.02004  -3.13372
   D41        3.12403   0.00035   0.00000   0.01024   0.01032   3.13434
   D42       -0.01001   0.00082   0.00000   0.01877   0.01882   0.00881
   D43       -0.01165   0.00095   0.00000   0.02342   0.02405   0.01240
   D44        3.12941   0.00078   0.00000   0.01888   0.01950  -3.13428
   D45        3.13650   0.00072   0.00000   0.01685   0.01722  -3.12946
   D46       -0.00562   0.00054   0.00000   0.01230   0.01266   0.00704
         Item               Value     Threshold  Converged?
 Maximum Force            0.063518     0.000450     NO 
 RMS     Force            0.011842     0.000300     NO 
 Maximum Displacement     0.119707     0.001800     NO 
 RMS     Displacement     0.038874     0.001200     NO 
 Predicted change in Energy=-1.494691D-02
 GradGradGradGradGradGradGradGradGradGradGradGradGradGradGradGradGradGrad

                          Input orientation:                          
 ---------------------------------------------------------------------
 Center     Atomic      Atomic             Coordinates (Angstroms)
 Number     Number       Type             X           Y           Z
 ---------------------------------------------------------------------
      1          8           0        2.847757   -0.571565   -0.095374
      2          8           0        1.120302   -2.490619   -0.008181
      3          8           0       -2.959908    1.112486    0.028329
      4          6           0        0.459684   -0.222802   -0.002384
      5          6           0       -0.636914    0.751069    0.028592
      6          6           0        1.785620    0.247025   -0.049673
      7          6           0        0.189988   -1.654329    0.003658
      8          6           0       -0.376529    2.124547    0.080859
      9          6           0       -2.023519    0.299325    0.002096
     10          6           0        2.017874    1.616516   -0.028377
     11          6           0        0.915606    2.554446    0.042591
     12          6           0       -1.208570   -2.042074   -0.013368
     13          6           0       -2.226591   -1.145027   -0.007162
     14          1           0       -1.197428    2.827972    0.125552
     15          1           0        3.042215    1.964561   -0.065244
     16          1           0        1.124857    3.616552    0.050360
     17          1           0       -1.389321   -3.110695   -0.031379
     18          1           0       -3.263004   -1.462161   -0.013496
     19          1           0        2.502791   -1.487377   -0.069372
 ---------------------------------------------------------------------
                    Distance matrix (angstroms):
                    1          2          3          4          5
     1  O    0.000000
     2  O    2.583500   0.000000
     3  O    6.048166   5.443512   0.000000
     4  C    2.415197   2.362085   3.671179   0.000000
     5  C    3.729298   3.687506   2.350941   1.466940   0.000000
     6  C    1.341758   2.817635   4.824432   1.407508   2.475653
     7  C    2.871572   1.251002   4.192579   1.456723   2.543684
     8  C    4.206673   4.852648   2.775046   2.493237   1.398919
     9  C    4.949473   4.203273   1.240461   2.537506   1.458578
    10  C    2.341131   4.204118   5.003556   2.410751   2.792874
    11  C    3.677525   5.049471   4.135101   2.814781   2.379639
    12  C    4.315427   2.371679   3.608348   2.468388   2.851350
    13  C    5.107411   3.607258   2.373895   2.840175   2.474577
    14  H    5.288591   5.803204   2.461439   3.474135   2.153394
    15  H    2.543749   4.852385   6.063025   3.384963   3.875224
    16  H    4.530999   6.107454   4.791256   3.896906   3.363823
    17  H    4.940051   2.585196   4.506170   3.429226   3.934836
    18  H    6.175862   4.502347   2.592764   3.923588   3.434605
    19  H    0.978973   1.709244   6.050613   2.403731   3.857199
                    6          7          8          9         10
     6  C    0.000000
     7  C    2.482747   0.000000
     8  C    2.866534   3.821885   0.000000
     9  C    3.809850   2.952351   2.459719   0.000000
    10  C    1.389209   3.747082   2.450141   4.250739   0.000000
    11  C    2.467717   4.271045   1.362310   3.704817   1.449049
    12  C    3.769146   1.451412   4.249929   2.479219   4.878057
    13  C    4.247052   2.469687   3.757738   1.458587   5.063798
    14  H    3.948490   4.693698   1.081980   2.663029   3.439402
    15  H    2.128193   4.608288   3.425602   5.332842   1.082483
    16  H    3.435160   5.353349   2.116877   4.573685   2.191762
    17  H    4.621133   2.148591   5.333489   3.468654   5.827136
    18  H    5.330219   3.458378   4.604902   2.153927   6.112786
    19  H    1.876932   2.319971   4.621585   4.866713   3.141811
                   11         12         13         14         15
    11  C    0.000000
    12  C    5.063916   0.000000
    13  C    4.854067   1.356871   0.000000
    14  H    2.132279   4.872039   4.106277   0.000000
    15  H    2.209538   5.841659   6.118269   4.330873   0.000000
    16  H    1.082551   6.121191   5.823070   2.453675   2.533515
    17  H    6.116533   1.083950   2.136693   5.943839   6.737795
    18  H    5.796297   2.134713   1.083867   4.763526   7.176412
    19  H    4.343734   3.753002   4.742164   5.687869   3.493834
                   16         17         18         19
    16  H    0.000000
    17  H    7.182174   0.000000
    18  H    6.711984   2.495731   0.000000
    19  H    5.288018   4.217243   5.766121   0.000000
 Symmetry turned off by external request.
[...]
   D46        0.00704  -0.00006  -0.00150   0.02145   0.02044   0.02748
         Item               Value     Threshold  Converged?
 Maximum Force            0.059992     0.000450     NO 
 RMS     Force            0.010764     0.000300     NO 
 Maximum Displacement     0.096222     0.001800     NO 
 RMS     Displacement     0.033687     0.001200     NO 
 Predicted change in Energy=-7.390144D-03
 GradGradGradGradGradGradGradGradGradGradGradGradGradGradGradGradGradGrad

                          Input orientation:                          
 ---------------------------------------------------------------------
 Center     Atomic      Atomic             Coordinates (Angstroms)
 Number     Number       Type             X           Y           Z
 ---------------------------------------------------------------------
      1          8           0        2.828376   -0.566002   -0.093256
      2          8           0        1.153056   -2.483993   -0.029952
      3          8           0       -3.002557    1.122983    0.051875
      4          6           0        0.448036   -0.231029   -0.006806
      5          6           0       -0.678692    0.751432   -0.002376
      6          6           0        1.819560    0.271910   -0.058869
      7          6           0        0.191636   -1.655449    0.017156
      8          6           0       -0.391593    2.097874    0.074131
      9          6           0       -2.063155    0.305016   -0.031784
     10          6           0        2.048820    1.617321   -0.008822
     11          6           0        0.937949    2.529268    0.046690
     12          6           0       -1.184513   -2.020080   -0.007747
     13          6           0       -2.224096   -1.122725   -0.001778
     14          1           0       -1.219351    2.786704    0.103800
     15          1           0        3.070624    1.963887   -0.015973
     16          1           0        1.155348    3.587266    0.039744
     17          1           0       -1.362767   -3.089822   -0.019569
     18          1           0       -3.253645   -1.462686    0.016798
     19          1           0        2.451872   -1.474022   -0.095234
 ---------------------------------------------------------------------
                    Distance matrix (angstroms):
                    1          2          3          4          5
     1  O    0.000000
     2  O    2.547429   0.000000
     3  O    6.072356   5.503280   0.000000
     4  C    2.405348   2.360813   3.707206   0.000000
     5  C    3.747454   3.718069   2.354005   1.494913   0.000000
     6  C    1.311864   2.835501   4.897897   1.461758   2.544484
     7  C    2.855080   1.270053   4.233645   1.447511   2.559478
     8  C    4.182398   4.836350   2.787120   2.476957   1.378835
     9  C    4.968855   4.257063   1.248417   2.567887   1.454953
    10  C    2.319857   4.198050   5.075871   2.445182   2.861665
    11  C    3.629600   5.018459   4.183928   2.803947   2.403464
    12  C    4.269066   2.383262   3.631484   2.421966   2.817296
    13  C    5.083874   3.641291   2.377411   2.816991   2.429143
    14  H    5.259616   5.781561   2.439362   3.449510   2.108534
    15  H    2.542636   4.843646   6.131497   3.419899   3.940508
    16  H    4.479547   6.071659   4.833323   3.883533   3.377489
    17  H    4.892931   2.587760   4.521254   3.384061   3.901729
    18  H    6.148750   4.523744   2.598068   3.901278   3.396037
    19  H    0.982985   1.646581   6.042919   2.359706   3.842096
                    6          7          8          9         10
     6  C    0.000000
     7  C    2.524011   0.000000
     8  C    2.870720   3.798794   0.000000
     9  C    3.882950   2.988293   2.453503   0.000000
    10  C    1.365722   3.763088   2.488660   4.316365   0.000000
    11  C    2.425705   4.250848   1.398047   3.736319   1.438319
    12  C    3.778926   1.423854   4.194397   2.485690   4.866737
    13  C    4.277782   2.473846   3.706223   1.437096   5.075994
    14  H    3.947864   4.661664   1.077288   2.624722   3.472907
    15  H    2.104706   4.624853   3.465980   5.395164   1.079001
    16  H    3.382674   5.330601   2.147673   4.597504   2.163639
    17  H    4.629254   2.115406   5.278650   3.466355   5.813454
    18  H    5.362085   3.450669   4.568612   2.131759   6.132147
    19  H    1.857261   2.270290   4.568634   4.853295   3.118705
                   11         12         13         14         15
    11  C    0.000000
    12  C    5.020396   0.000000
    13  C    4.830935   1.373322   0.000000
    14  H    2.173357   4.808204   4.037857   0.000000
    15  H    2.207235   5.829087   6.128739   4.369812   0.000000
    16  H    1.080125   6.076144   5.797101   2.506831   2.511323
    17  H    6.072221   1.084557   2.147482   5.879570   6.722719
    18  H    5.788441   2.143034   1.084384   4.712031   7.192973
    19  H    4.282340   3.678197   4.690077   5.627724   3.494046
                   16         17         18         19
    16  H    0.000000
    17  H    7.136381   0.000000
    18  H    6.703861   2.494857   0.000000
    19  H    5.226454   4.143430   5.706628   0.000000
 Symmetry turned off by external request.
 Stoichiometry    C10H6O3(3)
 Framework group  C1[X(C10H6O3)]
 Deg. of freedom    51
 Full point group                 C1      NOp   1
 Rotational constants (GHZ):           1.1763139           0.8971152           0.5091284
 Standard basis: 6-311G(d) (5D, 7F)
   252 basis functions,   446 primitive gaussians,   265 cartesian basis functions
    46 alpha electrons       44 beta electrons
       nuclear repulsion energy       733.2331586353 Hartrees.
 NAtoms=   19 NActive=   19 NUniq=   19 SFac= 1.00D+00 NAtFMM=   60 NAOKFM=F Big=F
 Integral buffers will be    131072 words long.
 Regular integral format.
 Two-electron integral symmetry is turned off.
 ------------------------------------------------------------------------------
 Polarizable Continuum Model (PCM)
 =================================
 Model                : PCM.
 Atomic radii         : UFF (Universal Force Field).
 Polarization charges : Total charges.
 Charge compensation  : None.
 Solution method      : On-the-fly selection.
 Cavity type          : Scaled VdW (van der Waals Surface) (Alpha=1.100).
 Cavity algorithm     : GePol (No added spheres)
                        Default sphere list used, NSphG=   19.
                        Lebedev-Laikov grids with approx.  5.0 points / Ang**2.
                        Smoothing algorithm: York/Karplus (Gamma=1.0000).
                        Polarization charges: spherical gaussians, with
                                              point-specific exponents (IZeta= 3).
                        Self-potential: point-specific (ISelfS= 7).
                        Self-field    : sphere-specific E.n sum rule (ISelfD= 2).
 1st derivatives      : Analytical E(r).r(x)/FMM algorithm (CHGder, D1EAlg=3).
                        Cavity 1st derivative terms included.
 Solvent              : Water, Eps=  78.355300 Eps(inf)=   1.777849
 ------------------------------------------------------------------------------
 Spheres list:
 ISph  on   Nord     Re0    Alpha      Xe            Ye            Ze
    1   O      1    1.7500  1.100      2.828376     -0.566002     -0.093256
    2   O      2    1.7500  1.100      1.153056     -2.483993     -0.029952
    3   O      3    1.7500  1.100     -3.002557      1.122983      0.051875
    4   C      4    1.9255  1.100      0.448036     -0.231029     -0.006806
    5   C      5    1.9255  1.100     -0.678692      0.751432     -0.002376
    6   C      6    1.9255  1.100      1.819560      0.271910     -0.058869
    7   C      7    1.9255  1.100      0.191636     -1.655449      0.017156
    8   C      8    1.9255  1.100     -0.391593      2.097874      0.074131
    9   C      9    1.9255  1.100     -2.063155      0.305016     -0.031784
   10   C     10    1.9255  1.100      2.048820      1.617321     -0.008822
   11   C     11    1.9255  1.100      0.937949      2.529268      0.046690
   12   C     12    1.9255  1.100     -1.184513     -2.020080     -0.007747
   13   C     13    1.9255  1.100     -2.224096     -1.122725     -0.001778
   14   H     14    1.4430  1.100     -1.219351      2.786704      0.103800
   15   H     15    1.4430  1.100      3.070624      1.963887     -0.015973
   16   H     16    1.4430  1.100      1.155348      3.587266      0.039744
   17   H     17    1.4430  1.100     -1.362767     -3.089822     -0.019569
   18   H     18    1.4430  1.100     -3.253645     -1.462686      0.016798
   19   H     19    1.4430  1.100      2.451872     -1.474022     -0.095234
 ------------------------------------------------------------------------------
 One-electron integrals computed using PRISM.
 NBasis=   252 RedAO= T EigKep=  1.67D-04  NBF=   252
 NBsUse=   252 1.00D-06 EigRej= -1.00D+00 NBFU=   252
 Initial guess from the checkpoint file:  "jug.chk"
 B after Tr=    -0.003495    0.004837   -0.003359
         Rot=    1.000000   -0.000734   -0.000174   -0.000492 Ang=  -0.10 deg.
 Initial guess <Sx>= 0.0000 <Sy>= 0.0000 <Sz>= 1.0000 <S**2>= 2.0380 S= 1.0126
 ExpMin= 1.03D-01 ExpMax= 8.59D+03 ExpMxC= 1.30D+03 IAcc=3 IRadAn=         5 AccDes= 0.00D+00
 Harris functional with IExCor= 1009 and IRadAn=       5 diagonalized for initial guess.
 HarFok:  IExCor= 1009 AccDes= 0.00D+00 IRadAn=         5 IDoV= 1 UseB2=F ITyADJ=14
 ICtDFT=  3500011 ScaDFX=  1.000000  1.000000  1.000000  1.000000
 FoFCou: FMM=F IPFlag=           0 FMFlag=      100000 FMFlg1=           0
         NFxFlg=           0 DoJE=T BraDBF=F KetDBF=T FulRan=T
         wScrn=  0.000000 ICntrl=       500 IOpCl=  0 I1Cent=   200000004 NGrid=           0
         NMat0=    1 NMatS0=      1 NMatT0=    0 NMatD0=    1 NMtDS0=    0 NMtDT0=    0
 Symmetry not used in FoFCou.
 Keep R1 and R2 ints in memory in canonical form, NReq=1025650496.
 Requested convergence on RMS density matrix=1.00D-08 within 128 cycles.
 Requested convergence on MAX density matrix=1.00D-06.
 Requested convergence on             energy=1.00D-06.
 No special actions if energy rises.
 Inv3:  Mode=1 IEnd=     8316675.
 Iteration    1 A*A^-1 deviation from unit magnitude is 4.88D-15 for    834.
 Iteration    1 A*A^-1 deviation from orthogonality  is 3.03D-15 for   1661    901.
 Iteration    1 A^-1*A deviation from unit magnitude is 4.88D-15 for   1665.
 Iteration    1 A^-1*A deviation from orthogonality  is 1.68D-15 for   1660   1438.
 Rare condition: small coef for last iteration:  0.000D+00
 Error on total polarization charges =  0.00871
 SCF Done:  E(UM062X) =  -610.162482211     A.U. after   27 cycles
            NFock= 27  Conv=0.10D-07     -V/T= 2.0033
 <Sx>= 0.0000 <Sy>= 0.0000 <Sz>= 1.0000 <S**2>= 2.0430 S= 1.0143
 <L.S>=  0.00000000000    
 Annihilation of the first spin contaminant:
 S**2 before annihilation     2.0430,   after     2.0009
 DoSCS=F DFT=T ScalE2(SS,OS)=  1.000000  1.000000
 ExpMin= 1.03D-01 ExpMax= 8.59D+03 ExpMxC= 1.30D+03 IAcc=3 IRadAn=         5 AccDes= 0.00D+00
 HarFok:  IExCor=  205 AccDes= 0.00D+00 IRadAn=         5 IDoV=-2 UseB2=F ITyADJ=14
 ICtDFT= 12500011 ScaDFX=  1.000000  1.000000  1.000000  1.000000
 Range of M.O.s used for correlation:    14   252
 NBasis=   252 NAE=    46 NBE=    44 NFC=    13 NFV=     0
 NROrb=    239 NOA=    33 NOB=    31 NVA=   206 NVB=   208

 **** Warning!!: The largest alpha MO coefficient is  0.16447616D+02


 **** Warning!!: The largest beta MO coefficient is  0.15950566D+02

 Ignoring spin specification with unrestricted ground state.
 Keep R1, R2, and R3 ints in memory in canonical form, NReq=1533770217.
 NEqPCM:  Using equilibrium solvation (IEInf=0, Eps=  78.3553, EpsInf=   1.7778)
 Generating guess from densities on rwf.
 Convergence on wavefunction:    0.000001000000000
 Iteration     1 Dimension     3 NMult     0 NNew      3
 CISAX will form     3 AO SS matrices at one time.
 New state      1 was old state      2
 New state      2 was old state      1
 Iteration     2 Dimension     6 NMult     3 NNew      3
 Iteration     3 Dimension     9 NMult     6 NNew      3
 Iteration     4 Dimension    12 NMult     9 NNew      3
 Iteration     5 Dimension    15 NMult    12 NNew      3
 Iteration     6 Dimension    18 NMult    15 NNew      3
 Iteration     7 Dimension    21 NMult    18 NNew      3
 Iteration     8 Dimension    24 NMult    21 NNew      3
 Iteration     9 Dimension    27 NMult    24 NNew      3
 Iteration    10 Dimension    30 NMult    27 NNew      3
 Iteration    11 Dimension    33 NMult    30 NNew      3
 Iteration    12 Dimension    36 NMult    33 NNew      3
 Iteration    13 Dimension    39 NMult    36 NNew      3
 Iteration    14 Dimension    40 NMult    39 NNew      1
 Iteration    15 Dimension    41 NMult    40 NNew      1
 Iteration    16 Dimension    42 NMult    41 NNew      1
 Iteration    17 Dimension    43 NMult    42 NNew      1
 ***********************************************************************
 Excited states from <AA,BB:AA,BB> singles matrix:
 ***********************************************************************
 
 ExtSpn:  IState=     1 X2= 1.000 Y2= 0.000 X2-Y2-1=-1.11D-16
          S2Grnd=  2.043 Ra=  0.001 Rb=  0.016 T=  0.003 S2Ext=  0.019 S2=  2.062
 ExtSpn:  IState=     2 X2= 1.000 Y2= 0.000 X2-Y2-1= 1.55D-15
          S2Grnd=  2.043 Ra=  0.008 Rb= -0.003 T=  0.004 S2Ext=  0.009 S2=  2.052
 ExtSpn:  IState=     3 X2= 1.000 Y2= 0.000 X2-Y2-1= 0.00D+00
          S2Grnd=  2.043 Ra=  0.001 Rb=  0.017 T=  0.003 S2Ext=  0.021 S2=  2.064
 Ground to excited state transition densities written to RWF  633
 Ground to excited state transition electric dipole moments (Au):
       state          X           Y           Z        Dip. S.      Osc.
         1        -0.0517      0.0230     -0.0189      0.0036      0.0001
         2        -0.2772     -0.4464      0.0028      0.2761      0.0043
         3        -0.1827      0.0968      0.0090      0.0428      0.0017
 Ground to excited state transition velocity dipole moments (Au):
       state          X           Y           Z        Dip. S.      Osc.
         1        -0.0021     -0.0008     -0.0068      0.0001      0.0008
         2        -0.0046     -0.0161     -0.0002      0.0003      0.0080
         3        -0.0076      0.0044      0.0040      0.0001      0.0011
 Ground to excited state transition magnetic dipole moments (Au):
       state          X           Y           Z
         1         0.2891     -0.2512      0.0839
         2         0.0203     -0.0145     -0.6479
         3         0.0247      0.0135     -0.0213
 Ground to excited state transition velocity quadrupole moments (Au):
       state          XX          YY          ZZ          XY          XZ          YZ
         1         0.0569     -0.0087     -0.0037      0.0082     -0.0288      0.0065
         2        -0.3842      0.0093     -0.0052     -0.0013      0.0064      0.0093
         3         0.0365     -0.0376      0.0003      0.0306      0.0082     -0.0208
 <0|del|b> * <b|rxdel|0> + <0|del|b> * <b|delr+rdel|0>
 Rotatory Strengths (R) in cgs (10**-40 erg-esu-cm/Gauss)
       state          XX          YY          ZZ    R(velocity)    E-M Angle
         1        -3.6018     -9.2812     -3.0800     -5.3210      110.59
         2         7.0752     -0.0979      1.2286      2.7353       88.57
         3         0.3664     -1.4381     -1.5136     -0.8618      128.90
 1/2[<0|r|b>*<b|rxdel|0> + (<0|rxdel|b>*<b|r|0>)*]
 Rotatory Strengths (R) in cgs (10**-40 erg-esu-cm/Gauss)
       state          XX          YY          ZZ     R(length)
         1        10.5691      4.0896      1.1207      5.2598
         2         3.9705     -4.5894      1.2629      0.2147
         3         3.1874     -0.9263      0.1357      0.7990
  1/2[<0|del|b>*<b|r|0> + (<0|r|b>*<b|del|0>)*] (Au)
       state          X           Y           Z        Dip. S.   Osc.(frdel)
         1         0.0001     -0.0000      0.0001     -0.0002     -0.0001
         2         0.0013      0.0072     -0.0000     -0.0085     -0.0056
         3         0.0014      0.0004      0.0000     -0.0019     -0.0012

 Excitation energies and oscillator strengths:
 
 Excited state symmetry could not be determined.
 Excited State   1:  3.041-?Sym    1.1895 eV 1042.31 nm  f=0.0001  <S**2>=2.062
     41B -> 45B        0.69842
     41B -> 46B        0.17019
     42B -> 45B        0.38356
     43B -> 45B        0.52998
     43B -> 46B        0.12301
 This state for optimization and/or second-order correction.
 Total Energy, E(CIS/TDA) =  -610.118768350    
 Copying the excited state density for this state as the 1-particle RhoCI density.
 
 Excited state symmetry could not be determined.
 Excited State   2:  3.034-?Sym    0.6356 eV 1950.55 nm  f=0.0043  <S**2>=2.052
     42B -> 45B       -0.39201
     43B -> 45B        0.19928
     44B -> 45B        0.88065
 
 Excited state symmetry could not be determined.
 Excited State   3:  3.042-?Sym    1.5973 eV  776.21 nm  f=0.0017  <S**2>=2.064
     41B -> 45B       -0.63297
     41B -> 46B       -0.20548
     42B -> 45B        0.29902
     42B -> 46B        0.12952
     43B -> 45B        0.62546
     43B -> 46B        0.16095
 SavETr:  write IOETrn=   770 NScale= 10 NData=  16 NLR=1 NState=    3 LETran=      64.
          IDoAtm=1111111111111111111
 NEqPCM:  Using equilibrium solvation (IEInf=0, Eps=  78.3553, EpsInf=   1.7778)
          Differentiating once with respect to electric field.
                with respect to dipole field.
          Differentiating once with respect to nuclear coordinates.
 Keep R1 and R2 ints in memory in canonical form, NReq=1025653278.
          There are     1 degrees of freedom in the 1st order CPHF.  IDoFFX=0 NUNeed=     1.
 LinEq1:  Iter=  0 NonCon=     1 RMS=4.20D-03 Max=2.04D-01 NDo=     1
 AX will form     1 AO Fock derivatives at one time.
 LinEq1:  Iter=  1 NonCon=     1 RMS=3.10D-03 Max=2.13D-01 NDo=     1
 LinEq1:  Iter=  2 NonCon=     1 RMS=1.72D-03 Max=8.29D-02 NDo=     1
 LinEq1:  Iter=  3 NonCon=     1 RMS=9.78D-04 Max=7.07D-02 NDo=     1
 LinEq1:  Iter=  4 NonCon=     1 RMS=4.42D-04 Max=2.19D-02 NDo=     1
 LinEq1:  Iter=  5 NonCon=     1 RMS=3.65D-04 Max=1.60D-02 NDo=     1
 LinEq1:  Iter=  6 NonCon=     1 RMS=1.71D-04 Max=6.81D-03 NDo=     1
 LinEq1:  Iter=  7 NonCon=     1 RMS=8.92D-05 Max=2.82D-03 NDo=     1
 LinEq1:  Iter=  8 NonCon=     1 RMS=5.84D-05 Max=2.22D-03 NDo=     1
 LinEq1:  Iter=  9 NonCon=     1 RMS=2.87D-05 Max=1.53D-03 NDo=     1
 LinEq1:  Iter= 10 NonCon=     1 RMS=1.81D-05 Max=6.24D-04 NDo=     1
 LinEq1:  Iter= 11 NonCon=     1 RMS=9.32D-06 Max=2.98D-04 NDo=     1
 LinEq1:  Iter= 12 NonCon=     1 RMS=4.99D-06 Max=2.48D-04 NDo=     1
 LinEq1:  Iter= 13 NonCon=     1 RMS=2.46D-06 Max=6.09D-05 NDo=     1
 LinEq1:  Iter= 14 NonCon=     1 RMS=1.21D-06 Max=4.02D-05 NDo=     1
 LinEq1:  Iter= 15 NonCon=     1 RMS=6.66D-07 Max=1.98D-05 NDo=     1
 LinEq1:  Iter= 16 NonCon=     1 RMS=4.06D-07 Max=1.69D-05 NDo=     1
 LinEq1:  Iter= 17 NonCon=     1 RMS=2.10D-07 Max=6.20D-06 NDo=     1
 LinEq1:  Iter= 18 NonCon=     1 RMS=1.27D-07 Max=3.92D-06 NDo=     1
 LinEq1:  Iter= 19 NonCon=     1 RMS=7.04D-08 Max=1.77D-06 NDo=     1
 LinEq1:  Iter= 20 NonCon=     1 RMS=2.71D-08 Max=7.10D-07 NDo=     1
 LinEq1:  Iter= 21 NonCon=     1 RMS=1.68D-08 Max=4.68D-07 NDo=     1
 LinEq1:  Iter= 22 NonCon=     1 RMS=7.16D-09 Max=3.00D-07 NDo=     1
 LinEq1:  Iter= 23 NonCon=     1 RMS=3.04D-09 Max=9.91D-08 NDo=     1
 LinEq1:  Iter= 24 NonCon=     1 RMS=1.92D-09 Max=6.60D-08 NDo=     1
 LinEq1:  Iter= 25 NonCon=     1 RMS=7.29D-10 Max=2.37D-08 NDo=     1
 LinEq1:  Iter= 26 NonCon=     1 RMS=3.06D-10 Max=1.42D-08 NDo=     1
 LinEq1:  Iter= 27 NonCon=     1 RMS=1.73D-10 Max=8.10D-09 NDo=     1
 LinEq1:  Iter= 28 NonCon=     1 RMS=6.98D-11 Max=3.24D-09 NDo=     1
 LinEq1:  Iter= 29 NonCon=     0 RMS=2.00D-11 Max=5.25D-10 NDo=     1
 Linear equations converged to 1.000D-10 1.000D-09 after    29 iterations.
