 Entering Gaussian System, Link 0=g16
 Initial command:
 /arc/software/Gaussian/g16.c01/l1.exe "/tmp/slurm/1118775/Gau-106360.inp" -scrdir="/tmp/slurm/1118775/"
 Entering Link 1 = /arc/software/Gaussian/g16.c01/l1.exe PID=    106361.
  
 Copyright (c) 1988-2019, Gaussian, Inc.  All Rights Reserved.
  
 This is part of the Gaussian(R) 16 program.  It is based on
 the Gaussian(R) 09 system (copyright 2009, Gaussian, Inc.),
 the Gaussian(R) 03 system (copyright 2003, Gaussian, Inc.),
 the Gaussian(R) 98 system (copyright 1998, Gaussian, Inc.),
 the Gaussian(R) 94 system (copyright 1995, Gaussian, Inc.),
 the Gaussian 92(TM) system (copyright 1992, Gaussian, Inc.),
 the Gaussian 90(TM) system (copyright 1990, Gaussian, Inc.),
 the Gaussian 88(TM) system (copyright 1988, Gaussian, Inc.),
 the Gaussian 86(TM) system (copyright 1986, Carnegie Mellon
 University), and the Gaussian 82(TM) system (copyright 1983,
 Carnegie Mellon University). Gaussian is a federally registered
 trademark of Gaussian, Inc.
  
 This software contains proprietary and confidential information,
 including trade secrets, belonging to Gaussian, Inc.
  
 This software is provided under written license and may be
 used, copied, transmitted, or stored only in accord with that
 written license.
  
 The following legend is applicable only to US Government
 contracts under FAR:
  
                    RESTRICTED RIGHTS LEGEND
  
 Use, reproduction and disclosure by the US Government is
 subject to restrictions as set forth in subparagraphs (a)
 and (c) of the Commercial Computer Software - Restricted
 Rights clause in FAR 52.227-19.
  
 Gaussian, Inc.
 340 Quinnipiac St., Bldg. 40, Wallingford CT 06492
  
  
 ---------------------------------------------------------------
 Warning -- This program may not be used in any manner that
 competes with the business of Gaussian, Inc. or will provide
 assistance to any competitor of Gaussian, Inc.  The licensee
 of this program is prohibited from giving any competitor of
 Gaussian, Inc. access to this program.  By using this program,
 the user acknowledges that Gaussian, Inc. is engaged in the
 business of creating and licensing software in the field of
 computational chemistry and represents and warrants to the
 licensee that it is not a competitor of Gaussian, Inc. and that
 it will not use this program in any manner prohibited above.
 ---------------------------------------------------------------
  

 Cite this work as:
 Gaussian 16, Revision C.01,
 M. J. Frisch, G. W. Trucks, H. B. Schlegel, G. E. Scuseria, 
 M. A. Robb, J. R. Cheeseman, G. Scalmani, V. Barone, 
 G. A. Petersson, H. Nakatsuji, X. Li, M. Caricato, A. V. Marenich, 
 J. Bloino, B. G. Janesko, R. Gomperts, B. Mennucci, H. P. Hratchian, 
 J. V. Ortiz, A. F. Izmaylov, J. L. Sonnenberg, D. Williams-Young, 
 F. Ding, F. Lipparini, F. Egidi, J. Goings, B. Peng, A. Petrone, 
 T. Henderson, D. Ranasinghe, V. G. Zakrzewski, J. Gao, N. Rega, 
 G. Zheng, W. Liang, M. Hada, M. Ehara, K. Toyota, R. Fukuda, 
 J. Hasegawa, M. Ishida, T. Nakajima, Y. Honda, O. Kitao, H. Nakai, 
 T. Vreven, K. Throssell, J. A. Montgomery, Jr., J. E. Peralta, 
 F. Ogliaro, M. J. Bearpark, J. J. Heyd, E. N. Brothers, K. N. Kudin, 
 V. N. Staroverov, T. A. Keith, R. Kobayashi, J. Normand, 
 K. Raghavachari, A. P. Rendell, J. C. Burant, S. S. Iyengar, 
 J. Tomasi, M. Cossi, J. M. Millam, M. Klene, C. Adamo, R. Cammi, 
 J. W. Ochterski, R. L. Martin, K. Morokuma, O. Farkas, 
 J. B. Foresman, and D. J. Fox, Gaussian, Inc., Wallingford CT, 2019.
 
 ******************************************
 Gaussian 16:  ES64L-G16RevC.01  3-Jul-2019
                 6-Jun-2024 
 ******************************************
 %chk=mNA.chk
 %mem=128GB
 %nprocshared=4
 Will use up to    4 processors via shared memory.
 ----------------------------------------------------------------------
 # opt M062X/6-311g* TDA=(triplet,root=1) scrf=(SMD,solvent=water) int=
 ultrafine Nosymm
 ----------------------------------------------------------------------
 1/18=20,19=15,26=6,38=1/1,3;
 2/9=110,12=2,15=1,17=6,18=5,40=1/2;
 3/5=4,6=6,7=1,11=9,25=1,30=1,70=32201,71=1,72=1,74=-55,75=-5/1,2,3,8;
 4//1;
 5/5=2,38=5,53=1/2;
 8/6=1,10=2,107=1/1;
 9/8=1,15=2,42=1,48=3/14;
 10/5=4,28=1,31=1/2;
 6/7=2,8=2,9=2,10=2/1;
 7/12=6,13=5,14=1,30=1/1,2,3,16;
 1/18=20,19=15,26=6/3(2);
 2/9=110,15=1/2;
 99//99;
 2/9=110,15=1/2;
 3/5=4,6=6,7=1,11=9,25=1,30=1,70=32205,71=1,72=1,74=-55,75=-5/1,2,3,8;
 4/5=5,16=3,69=1/1;
 5/5=2,38=5,53=1/2;
 8/6=1,10=2,107=1/1;
 9/8=1,15=2,42=1,48=3,49=4/14;
 10/5=4,28=1,31=1/2;
 7/12=6,13=5,14=1,30=1/1,2,3,16;
 1/18=20,19=15,26=6/3(-8);
 2/9=110,15=1/2;
 6/7=2,8=2,9=2,10=2/1;
 99/9=10/99;
 -------------------------------------------
 Meta Nitroanisole triplet state calculation
 -------------------------------------------
 Symbolic Z-matrix:
 Charge =  0 Multiplicity = 3
 O                     0.90466   0.02366   0.08053 
 O                     1.2724    4.53964  -2.19822 
 O                    -0.46151   5.66067  -1.45854 
 N                     0.25137   4.64738  -1.50497 
 C                     0.25339   1.22586   0.04124 
 C                    -0.14483   3.49648  -0.68468 
 C                     0.63636   2.33174  -0.71596 
 C                    -0.89451   1.30176   0.83837 
 C                    -1.29889   3.56857   0.10598 
 C                    -1.66972   2.46372   0.87055 
 C                     2.03644  -0.11886  -0.77233 
 H                     1.52763   2.30347  -1.33474 
 H                    -1.19157   0.44124   1.4352 
 H                    -1.91301   4.46627   0.1336 
 H                    -2.56488   2.50106   1.48754 
 H                     2.37914  -1.15586  -0.70731 
 H                     1.77842   0.07768  -1.81824 
 H                     2.85453   0.52823  -0.43878 
 

 GradGradGradGradGradGradGradGradGradGradGradGradGradGradGradGradGradGrad
 Berny optimization.
 Initialization pass.
                           ----------------------------
                           !    Initial Parameters    !
                           ! (Angstroms and Degrees)  !
 --------------------------                            --------------------------
 ! Name  Definition              Value          Derivative Info.                !
 --------------------------------------------------------------------------------
 ! R1    R(1,5)                  1.3678         estimate D2E/DX2                !
 ! R2    R(1,11)                 1.4243         estimate D2E/DX2                !
 ! R3    R(2,4)                  1.2388         estimate D2E/DX2                !
 ! R4    R(3,4)                  1.2398         estimate D2E/DX2                !
 ! R5    R(4,6)                  1.4678         estimate D2E/DX2                !
 ! R6    R(5,7)                  1.3939         estimate D2E/DX2                !
 ! R7    R(5,8)                  1.3996         estimate D2E/DX2                !
 ! R8    R(6,7)                  1.4028         estimate D2E/DX2                !
 ! R9    R(6,9)                  1.4008         estimate D2E/DX2                !
 ! R10   R(7,12)                 1.0854         estimate D2E/DX2                !
 ! R11   R(8,10)                 1.3972         estimate D2E/DX2                !
 ! R12   R(8,13)                 1.0886         estimate D2E/DX2                !
 ! R13   R(9,10)                 1.3938         estimate D2E/DX2                !
 ! R14   R(9,14)                 1.088          estimate D2E/DX2                !
 ! R15   R(10,15)                1.0878         estimate D2E/DX2                !
 ! R16   R(11,16)                1.0941         estimate D2E/DX2                !
 ! R17   R(11,17)                1.095          estimate D2E/DX2                !
 ! R18   R(11,18)                1.0951         estimate D2E/DX2                !
 ! A1    A(5,1,11)             116.6855         estimate D2E/DX2                !
 ! A2    A(2,4,3)              124.4676         estimate D2E/DX2                !
 ! A3    A(2,4,6)              117.8408         estimate D2E/DX2                !
 ! A4    A(3,4,6)              117.6914         estimate D2E/DX2                !
 ! A5    A(1,5,7)              125.5971         estimate D2E/DX2                !
 ! A6    A(1,5,8)              114.949          estimate D2E/DX2                !
 ! A7    A(7,5,8)              119.4525         estimate D2E/DX2                !
 ! A8    A(4,6,7)              119.2261         estimate D2E/DX2                !
 ! A9    A(4,6,9)              119.8331         estimate D2E/DX2                !
 ! A10   A(7,6,9)              120.938          estimate D2E/DX2                !
 ! A11   A(5,7,6)              119.5784         estimate D2E/DX2                !
 ! A12   A(5,7,12)             120.9732         estimate D2E/DX2                !
 ! A13   A(6,7,12)             119.4474         estimate D2E/DX2                !
 ! A14   A(5,8,10)             120.8823         estimate D2E/DX2                !
 ! A15   A(5,8,13)             119.5524         estimate D2E/DX2                !
 ! A16   A(10,8,13)            119.5635         estimate D2E/DX2                !
 ! A17   A(6,9,10)             119.2101         estimate D2E/DX2                !
 ! A18   A(6,9,14)             121.4542         estimate D2E/DX2                !
 ! A19   A(10,9,14)            119.3355         estimate D2E/DX2                !
 ! A20   A(8,10,9)             119.9318         estimate D2E/DX2                !
 ! A21   A(8,10,15)            119.8793         estimate D2E/DX2                !
 ! A22   A(9,10,15)            120.1877         estimate D2E/DX2                !
 ! A23   A(1,11,16)            107.9481         estimate D2E/DX2                !
 ! A24   A(1,11,17)            111.5143         estimate D2E/DX2                !
 ! A25   A(1,11,18)            110.6164         estimate D2E/DX2                !
 ! A26   A(16,11,17)           107.4985         estimate D2E/DX2                !
 ! A27   A(16,11,18)           107.9366         estimate D2E/DX2                !
 ! A28   A(17,11,18)           111.1544         estimate D2E/DX2                !
 ! D1    D(11,1,5,7)            -2.8545         estimate D2E/DX2                !
 ! D2    D(11,1,5,8)           176.6978         estimate D2E/DX2                !
 ! D3    D(5,1,11,16)         -174.0955         estimate D2E/DX2                !
 ! D4    D(5,1,11,17)          -56.2285         estimate D2E/DX2                !
 ! D5    D(5,1,11,18)           68.0177         estimate D2E/DX2                !
 ! D6    D(2,4,6,7)             -0.04           estimate D2E/DX2                !
 ! D7    D(2,4,6,9)           -179.4329         estimate D2E/DX2                !
 ! D8    D(3,4,6,7)            179.8014         estimate D2E/DX2                !
 ! D9    D(3,4,6,9)              0.4085         estimate D2E/DX2                !
 ! D10   D(1,5,7,6)            178.5355         estimate D2E/DX2                !
 ! D11   D(1,5,7,12)            -1.0995         estimate D2E/DX2                !
 ! D12   D(8,5,7,6)             -0.9983         estimate D2E/DX2                !
 ! D13   D(8,5,7,12)           179.3668         estimate D2E/DX2                !
 ! D14   D(1,5,8,10)          -178.7129         estimate D2E/DX2                !
 ! D15   D(1,5,8,13)             0.8024         estimate D2E/DX2                !
 ! D16   D(7,5,8,10)             0.869          estimate D2E/DX2                !
 ! D17   D(7,5,8,13)          -179.6157         estimate D2E/DX2                !
 ! D18   D(4,6,7,5)           -178.8313         estimate D2E/DX2                !
 ! D19   D(4,6,7,12)             0.8092         estimate D2E/DX2                !
 ! D20   D(9,6,7,5)              0.5547         estimate D2E/DX2                !
 ! D21   D(9,6,7,12)          -179.8048         estimate D2E/DX2                !
 ! D22   D(4,6,9,10)           179.4232         estimate D2E/DX2                !
 ! D23   D(4,6,9,14)            -0.3784         estimate D2E/DX2                !
 ! D24   D(7,6,9,10)             0.0409         estimate D2E/DX2                !
 ! D25   D(7,6,9,14)          -179.7607         estimate D2E/DX2                !
 ! D26   D(5,8,10,9)            -0.2737         estimate D2E/DX2                !
 ! D27   D(5,8,10,15)          179.3268         estimate D2E/DX2                !
 ! D28   D(13,8,10,9)         -179.789          estimate D2E/DX2                !
 ! D29   D(13,8,10,15)          -0.1885         estimate D2E/DX2                !
 ! D30   D(6,9,10,8)            -0.1819         estimate D2E/DX2                !
 ! D31   D(6,9,10,15)         -179.7811         estimate D2E/DX2                !
 ! D32   D(14,9,10,8)          179.624          estimate D2E/DX2                !
 ! D33   D(14,9,10,15)           0.0248         estimate D2E/DX2                !
 --------------------------------------------------------------------------------
 Trust Radius=3.00D-01 FncErr=5.00D-06 GrdErr=5.00D-06 EigMax=2.50D+02 EigMin=1.00D-04
 Number of steps in this run=     89 maximum allowed number of steps=    108.
 GradGradGradGradGradGradGradGradGradGradGradGradGradGradGradGradGradGrad

                          Input orientation:                          
 ---------------------------------------------------------------------
 Center     Atomic      Atomic             Coordinates (Angstroms)
 Number     Number       Type             X           Y           Z
 ---------------------------------------------------------------------
      1          8           0        0.904660    0.023660    0.080530
      2          8           0        1.272400    4.539640   -2.198220
      3          8           0       -0.461510    5.660670   -1.458540
      4          7           0        0.251370    4.647380   -1.504970
      5          6           0        0.253390    1.225860    0.041240
      6          6           0       -0.144830    3.496480   -0.684680
      7          6           0        0.636360    2.331740   -0.715960
      8          6           0       -0.894510    1.301760    0.838370
      9          6           0       -1.298890    3.568570    0.105980
     10          6           0       -1.669720    2.463720    0.870550
     11          6           0        2.036440   -0.118860   -0.772330
     12          1           0        1.527630    2.303470   -1.334740
     13          1           0       -1.191570    0.441240    1.435200
     14          1           0       -1.913010    4.466270    0.133600
     15          1           0       -2.564880    2.501060    1.487540
     16          1           0        2.379140   -1.155860   -0.707310
     17          1           0        1.778420    0.077680   -1.818240
     18          1           0        2.854530    0.528230   -0.438780
 ---------------------------------------------------------------------
                    Distance matrix (angstroms):
                    1          2          3          4          5
     1  O    0.000000
     2  O    5.071687   0.000000
     3  O    6.000920   2.193235   0.000000
     4  N    4.931469   1.238832   1.239803   0.000000
     5  C    1.367838   4.127312   4.735817   3.754673   0.000000
     6  C    3.707756   2.321105   2.320100   1.467795   2.416869
     7  C    2.456342   2.734312   3.583088   2.476478   1.393911
     8  C    2.333425   4.939660   4.946047   4.242341   1.399590
     9  C    4.174047   3.586621   2.743321   2.482397   2.811059
    10  C    3.633931   4.731053   4.135810   3.755270   2.432777
    11  C    1.424292   4.931383   6.333530   5.142011   2.376854
    12  H    2.754744   2.410642   3.904202   2.674272   2.162927
    13  H    2.530550   6.005811   6.012418   5.330881   2.155612
    14  H    5.261071   3.948367   2.463403   2.720708   3.898984
    15  H    4.489420   5.697838   4.804861   4.636062   3.414757
    16  H    2.045984   5.990526   7.422851   6.232276   3.278983
    17  H    2.090862   4.506609   6.026313   4.828269   2.664901
    18  H    2.079968   4.657271   6.194996   4.988046   2.735514
                    6          7          8          9         10
     6  C    0.000000
     7  C    1.402803   0.000000
     8  C    2.774617   2.412543   0.000000
     9  C    1.400784   2.439370   2.416267   0.000000
    10  C    2.410523   2.802220   1.397189   1.393835   0.000000
    11  C    4.223305   2.822914   3.633591   5.049059   4.806703
    12  H    2.154756   1.085380   3.404790   3.415460   3.887420
    13  H    3.863165   3.397471   1.088552   3.399785   2.153574
    14  H    2.176358   3.431801   3.398259   1.088013   2.147671
    15  H    3.400889   3.889990   2.156358   2.156622   1.087834
    16  H    5.292939   3.898809   4.375592   6.042316   5.655464
    17  H    4.083141   2.756829   3.962386   5.035749   4.981209
    18  H    4.226953   2.872239   4.035438   5.176034   5.092083
                   11         12         13         14         15
    11  C    0.000000
    12  H    2.538282   0.000000
    13  H    3.950563   4.305173   0.000000
    14  H    6.119010   4.321080   4.291329   0.000000
    15  H    5.757008   4.975233   2.476202   2.473891   0.000000
    16  H    1.094093   3.617416   4.459938   7.123063   6.529454
    17  H    1.095048   2.291464   4.420168   6.057727   5.972035
    18  H    1.095104   2.390583   4.459854   6.210090   6.080524
                   16         17         18
    16  H    0.000000
    17  H    1.765404   0.000000
    18  H    1.770385   1.806632   0.000000
 Symmetry turned off by external request.
 Stoichiometry    C7H7NO3(3)
 Framework group  C1[X(C7H7NO3)]
 Deg. of freedom    48
 Full point group                 C1      NOp   1
 Rotational constants (GHZ):           1.9184977           0.7967250           0.5651160
 Standard basis: 6-311G(d) (5D, 7F)
   219 basis functions,   387 primitive gaussians,   230 cartesian basis functions
    41 alpha electrons       39 beta electrons
       nuclear repulsion energy       586.6436938013 Hartrees.
 NAtoms=   18 NActive=   18 NUniq=   18 SFac= 1.00D+00 NAtFMM=   60 NAOKFM=F Big=F
 Integral buffers will be    131072 words long.
 Regular integral format.
 Two-electron integral symmetry is turned off.
 ------------------------------------------------------------------------------
 Polarizable Continuum Model (PCM)
 =================================
 Model                : PCM.
 Atomic radii         : SMD-Coulomb.
 Polarization charges : Total charges.
 Charge compensation  : None.
 Solution method      : On-the-fly selection.
 Cavity type          : VdW (van der Waals Surface) (Alpha=1.000).
 Cavity algorithm     : GePol (No added spheres)
                        Default sphere list used, NSphG=   18.
                        Lebedev-Laikov grids with approx.  5.0 points / Ang**2.
                        Smoothing algorithm: York/Karplus (Gamma=1.0000).
                        Polarization charges: spherical gaussians, with
                                              point-specific exponents (IZeta= 3).
                        Self-potential: point-specific (ISelfS= 7).
                        Self-field    : sphere-specific E.n sum rule (ISelfD= 2).
 1st derivatives      : Analytical E(r).r(x)/FMM algorithm (CHGder, D1EAlg=3).
                        Cavity 1st derivative terms included.
 Solvent              : Water, Eps=  78.355300 Eps(inf)=   1.777849
 ------------------------------------------------------------------------------
 Spheres list:
 ISph  on   Nord     Re0    Alpha      Xe            Ye            Ze
    1   O      1    1.5200  1.000      0.904660      0.023660      0.080530
    2   O      2    1.5200  1.000      1.272400      4.539640     -2.198220
    3   O      3    1.5200  1.000     -0.461510      5.660670     -1.458540
    4   N      4    1.8900  1.000      0.251370      4.647380     -1.504970
    5   C      5    1.8500  1.000      0.253390      1.225860      0.041240
    6   C      6    1.8500  1.000     -0.144830      3.496480     -0.684680
    7   C      7    1.8500  1.000      0.636360      2.331740     -0.715960
    8   C      8    1.8500  1.000     -0.894510      1.301760      0.838370
    9   C      9    1.8500  1.000     -1.298890      3.568570      0.105980
   10   C     10    1.8500  1.000     -1.669720      2.463720      0.870550
   11   C     11    1.8500  1.000      2.036440     -0.118860     -0.772330
   12   H     12    1.2000  1.000      1.527630      2.303470     -1.334740
   13   H     13    1.2000  1.000     -1.191570      0.441240      1.435200
   14   H     14    1.2000  1.000     -1.913010      4.466270      0.133600
   15   H     15    1.2000  1.000     -2.564880      2.501060      1.487540
   16   H     16    1.2000  1.000      2.379140     -1.155860     -0.707310
   17   H     17    1.2000  1.000      1.778420      0.077680     -1.818240
   18   H     18    1.2000  1.000      2.854530      0.528230     -0.438780
 ------------------------------------------------------------------------------
 ------------------------------------------------------------------------------
 Atomic radii for non-electrostatic terms: SMD-CDS.
 ------------------------------------------------------------------------------
 Nuclear repulsion after PCM non-electrostatic terms =      586.6549413627 Hartrees.
 One-electron integrals computed using PRISM.
 NBasis=   219 RedAO= T EigKep=  2.15D-04  NBF=   219
 NBsUse=   219 1.00D-06 EigRej= -1.00D+00 NBFU=   219
 ExpMin= 1.03D-01 ExpMax= 8.59D+03 ExpMxC= 1.30D+03 IAcc=3 IRadAn=         5 AccDes= 0.00D+00
 Harris functional with IExCor= 1009 and IRadAn=       5 diagonalized for initial guess.
 HarFok:  IExCor= 1009 AccDes= 0.00D+00 IRadAn=         5 IDoV= 1 UseB2=F ITyADJ=14
 ICtDFT=  3500011 ScaDFX=  1.000000  1.000000  1.000000  1.000000
 FoFCou: FMM=F IPFlag=           0 FMFlag=      100000 FMFlg1=           0
         NFxFlg=           0 DoJE=T BraDBF=F KetDBF=T FulRan=T
         wScrn=  0.000000 ICntrl=       500 IOpCl=  0 I1Cent=   200000004 NGrid=           0
         NMat0=    1 NMatS0=      1 NMatT0=    0 NMatD0=    1 NMtDS0=    0 NMtDT0=    0
 Symmetry not used in FoFCou.
 Initial guess <Sx>= 0.0000 <Sy>= 0.0000 <Sz>= 1.0000 <S**2>= 2.0000 S= 1.0000
 Keep R1 and R2 ints in memory in canonical form, NReq=586516540.
 Requested convergence on RMS density matrix=1.00D-08 within 128 cycles.
 Requested convergence on MAX density matrix=1.00D-06.
 Requested convergence on             energy=1.00D-06.
 No special actions if energy rises.
 Inv3:  Mode=1 IEnd=     5938947.
 Iteration    1 A*A^-1 deviation from unit magnitude is 3.11D-15 for    762.
 Iteration    1 A*A^-1 deviation from orthogonality  is 3.07D-15 for   1401    668.
 Iteration    1 A^-1*A deviation from unit magnitude is 3.11D-15 for   1407.
 Iteration    1 A^-1*A deviation from orthogonality  is 1.05D-11 for    867    762.
 Error on total polarization charges =  0.03967
 SCF Done:  E(UM062X) =  -551.080376526     A.U. after   23 cycles
            NFock= 23  Conv=0.63D-08     -V/T= 2.0030
 <Sx>= 0.0000 <Sy>= 0.0000 <Sz>= 1.0000 <S**2>= 2.0368 S= 1.0122
 <L.S>=  0.00000000000    
 SMD-CDS (non-electrostatic) energy       (kcal/mol) =       7.06
 (included in total energy above)
 Annihilation of the first spin contaminant:
 S**2 before annihilation     2.0368,   after     2.0006
 DoSCS=F DFT=T ScalE2(SS,OS)=  1.000000  1.000000
 ExpMin= 1.03D-01 ExpMax= 8.59D+03 ExpMxC= 1.30D+03 IAcc=3 IRadAn=         5 AccDes= 0.00D+00
 HarFok:  IExCor=  205 AccDes= 0.00D+00 IRadAn=         5 IDoV=-2 UseB2=F ITyADJ=14
 ICtDFT= 12500011 ScaDFX=  1.000000  1.000000  1.000000  1.000000
 Range of M.O.s used for correlation:    12   219
 NBasis=   219 NAE=    41 NBE=    39 NFC=    11 NFV=     0
 NROrb=    208 NOA=    30 NOB=    28 NVA=   178 NVB=   180

 **** Warning!!: The largest alpha MO coefficient is  0.13701644D+02


 **** Warning!!: The largest beta MO coefficient is  0.13904414D+02

 Ignoring spin specification with unrestricted ground state.
 Keep R1, R2, and R3 ints in memory in canonical form, NReq=887566815.
 NEqPCM:  Using equilibrium solvation (IEInf=0, Eps=  78.3553, EpsInf=   1.7778)
    12 initial guesses have been made.
 Convergence on wavefunction:    0.000001000000000
 Iteration     1 Dimension    12 NMult     0 NNew     12
 CISAX will form    12 AO SS matrices at one time.
 New state      1 was old state      2
 New state      2 was old state      1
 Iteration     2 Dimension    24 NMult    12 NNew     12
                                                                                                                                                                                                                                                                                                                                                                                                                                                                                                                                                                                                                                                                                                                                                                                                                                                                                                                                                                                                                                                                                                                                                                                                                                                                                                                                                                                                                                                                                                                                                                                                                                                                                                                                                                                                                                                                                                                                                                                                                                                                                                                                                                                                                                                                                                                                                                                                                                                                                                                                                                                                                                                                                                                                                                                                                                                                                                                                                                                                                                                                                                                                                                                                                                                                                                                                                                                                                                                                                                                                                                                                                                                                                                                                                                                                                                                                                                                                                                                                                                                                                                                                                                                                                                                                                                                                                                                                                                                                                                                                                                                                                                                                                                                                                                                                                                                                                                                                                                                                                                                                                                                                                                                                                                                                                                                                                                                                                                                                                                                                                                                                                                                                                                                                                                                                                                                                                                                                                                                                                                                                                                                                                                                                                                                                                                                                                                                                                                                                                                                                                                                                                                                                                                                                                                                                                                                                                                                                                                                                                                                                                                                                                                                                                                                                                                                                                                                                                                                                                                                                                                                                                                                                                                                                                                                                                                                                                                                                                                                                                                                                                                                                                                                                                                                                                                                                                                                                                                                                                                                                                                                                                                                                                                                                                                                                                                                                                                                                                                                                                                                                                                                                                                                                                                                                                                                                                                                                                                                                                                                                                                                                                                                                                                                                                                                                                                                                                                                                                                                                                                                                                                                                                                                                                                                                                                                                                                                                                                                                                                                                                                                                                                                                                                                                                                                                                                                                                                                                                                                                                                                                                                                                                                                                                                                                                                                                                                                                                                                                                                                                                                                                                                                                                                                                                                                                                                                                                                                                                                                                                                                                                                                                                                                                                                                                                                                                                                                                                                                                                                                                                                                                                                                                                                                                                                                                                                                                                                                                                                                                                                                                                                                                                                                                                                                                                                                                                                                                                                                                                                                                                                                                                                                                                                                                                                                                                                                                                                                                                                                                                                                                                                                                                                                                                                                                                                                                                                                                                                                                                                                                                                                                                                                                                                                                                                                                                                                                                                                                                                                                                                                                                                                                                                                                                                                                                                                                                                                                                                                                                                                                                                                                                                                                                                                                                                                                                                                                                                                                                                                                                                                                                                                                                                                                                                                                                                                                                                                                                                                                                                                                                                                                                                                                                                                                                                                                                                                                                                                                                                                                                                                                                                                                                                                                                                                                                                                                                                                                                                                                                                                                                                                                                                                                                                                                                                                                                                                                                                                                                                                                                                                                                                                                                                                                                                                                                                                                                                                                                                                                                                                                                                                                                                                                                                                                                                                                                                                                                                                                                                                                                                                                                                                                                                                                                                                                                                                                                                                                                                                                                                                                                                                                                                                                                                                                                                                                                                                                                                                                                                                                                                                                                                                                                                                                                                                                                                                                                                                                                                                                                                                                                                                                                                                                                                                                                                                                                                                                                                                                                                                                                                                                                                                                                                                                                                                                                                                                                                                                                                                                                                                                                                                                                                                                                                                                                                                                                                                                                                                                                                                                                                                                                                                                                                                                                                                                                                                                                                                                                                                                                                                                                                                                                                                                                                                                                                                                                                                                                                                                                                                                                                                                                                                                                                                                                                                                                                                                                                                                                                                                                                                                                                                                                                                                                                                                                                                                                                                                                                                                                                                                                                                                                                                                                                                                                                                                                                                                                                                                                                                                                                                                                                                                                                                                                                                                                                                                                                                                                                                                                                                                                                                                                                                                                                                                                                                                                                                                                                                                                                                                                                                                                                                                                                                                                                                                                                                                                                                                                                                                                                                                                                                                                                                                                                                                                                                                                                                                                                                                                                                                                                                                                                                                                                                                                                                                                                                                                                                                                                                                                                                                                                                                                                                                                                                                                                                                                                                                                                                                                                                                                                                                                                                                                                                                                                                                                                                                                                                                                                                                                                                                                                                                                                                                                                                                                                                                                                                                                                                                                                                                                                                                                                                                                                                                                                                                                                                                                                                                                                                                                                                                                                                                                                                                                                                                                                                                                                                                                                                                                                                                                                                                                                                                                                                                                                                                                                                                                                                                                                                                                                                                                                                                                                                                                                                                                                                                                                                                                                                                                                                                                                                                                                                                                                                                                                                                                                                                                                                                                                                                                                                                                                                                                                                                                                                                                                                                                                                                                                                                                                                                                                                                                                                                                                                                                                                                                                                                                                                                                                                                                                                                                                                                                                                                                                                                                                                                                                                                                                                                                                                                                                                                                                                                                                                                                                                                                                                                                                                                                                                                                                                                                                                                                                                                                                                                                                                                                                                                                                                                                                                                                                                                                                                                                                                                                                                                                                                                                                                                                                                                                                                                                                                                                                                                                                                                                                                                                                                                                                                                                                                                                                                                                                                                                                                                                                                                                                                                                                                                                                                                                                                                                                                                                                                                                                                                                                                                                                                                                                                                                                                                                                                                                                                                                                                                                                                                                                                                                                                                                                                                                                                                                                                                                                                                                                                                                                                                                                                                                                                                                                                                                                                                                                                                                                                                                                                                                                                                                                                                                                                                                                                                                                                                                                                                                                                                                                                                                                                                                                                                                                                                                                                                                                                                                                                                                                                                                                                                                                                                                                                                                                                                                                                                                                                                                                                                                                                                                                                                                                                                                                                                                                                                                                                                                                                                                                                                                                                                                                                                                                                                                                                                                                                                                                                                                                                                                                                                                                                                                                                                                                                                                                                                                                                                                                                                                                                                                                                                                                                                                                                                                                                                                                                                                                                                                                                                                                                                                                                                                                                                                                                                                                                                                                                                                                                                                                                                                                                                                                                                                                                                                                                                                                                                                                                                                                                                                                                                                                                                                                                                                                                                                                                                                                                                                                                                                                                                                                                                                                                                                                                                                                                                                                                                                                                                                                                                                                                                                                                                                                                                                                                                                                                                                                                                                                                                                                                                                                                                                                                                                                                                                                                                                                                                                                                                                                                                                                                                                                                                                                                                                                                                                                                                                                                                                                                                                                                                                                                                                                                                                                                                                                                                                                                                                                                                                                                                                                                                                                                                                                                                                                                                                                                                                                                                                                                                                                                                                                                                                                                                                                                                                                                                                                                                                                                                                                                                                                                                                                                                                                                                                                                                                                                                                                                                                                                                                                                                                                                                                                                                                                                                                                                                                                                                                                                                                                                                                                                                                                                                                                                                                                                                                                                                                                                                                                                                                                                                                                                                                                                                                                                                                                                                                                                                                                                                                                                                                                                                                                                                                                                                                                                                                                                                                                                                                                                                                                                                                                                                                                                                                                                                                                                                                                                                                                                                                                                                                                                                                                                                                                                                                                                                                                                                                                                                                                                                                                                                                                                                                                                                                                                                                                                                                                                                                                                                                                                                                                                                                                                                                                                                                                                                                                                                                                                                                                                                                                                                                                                                                                                                                                                                                                                                                                                                                                                                                                                                                                                                                                                                                                                                                                                                                                                                                                                                                                                                                                                                                                                                                                                                                                                                                                                                                                                                                                                                                                                                                                                                                                                                                                                                                                                                                                                                                                                                                                                                                                                                                                                                                                                                                                                                                                                                                                                                                                                                                                                                                                                                                                                                                                                                                                                                                                                                                                                                                                                                                                                                                                                                                                                                                                                                                                                                                                                                                                                                                                                                                                                                                                                                                                                                                                                                                                                                                                                                                                                                                                                                                                                                                                                                                                                                                                                                                                                                                                                                                                                                                                                                                                                                                                                                                                                                                                                                                                                                                                                                                                                                                                                                                                                                                                                                                                                                                                                                                                                                                                                                                                                                                                                                                                                                                                                                                                                                                                                                                                                                                                                                                                                                                                                                                                                                                                                                                                                                                                                                                                                                                                                                                                                                                                                                                                                                                                                                                                                                                                                                                                                                                                                                                                                                                                                                                                                                                                                                                                                                                                                                                                                                                                                                                                                                                                                                                                                                                                                                                                                                                                                                                                                                                                                                                       
[...]
                                                                                                                                                                                                                                                                                                                                                                                                                                                                                                                                                                                                                                                                                                                                                                                                                                                                                                                                                                                                                                                                                                                                                                                                                                                                                                                                                                                                                                                                                                                                                                                                                                                                                                                                                                                                                                                                                                                                                                                                                                                                                                                                                                                                                                                                                                                                                                                                                                                                                                                                                                                                                                                                                                                                                                                                                                                                                                                                                                                                                                                                                                                                                                                                                                                                                                                                                                                                                                                                                                                                                                                                                                                                                                                                                                                                                                                                                                                                                                                                                                                                                                                                                                                                                                                                                                                                                                                                                                                                                                                                                                                                                                                                                                                                                                                                                                                                                                                                                                                                                                                                                                                                                                                                                                                                                                                                                                                                                                                                                                                                                                                                                                                                                                                                                                                                                                                                                                                                                                                                                                                                                                                                                                                                                                                                                                                                                                                                                                                                                                                                                                                                                                                                                                                                                                                                                                                                                                                                                                                                                                                                                                                                                                                                                                                                                                                                                                                                                                                                                                                                                                                                                                                                                                                                                                                                                                                                                                                                                                                                                                                                                                                                                                                                                                                                                                                                                                                                                                                                                                                                                                                                                                                                                                                                                                                                                                                                                                                                                                                                                                                                                                                                                                                                                                                                                                                                                                                                                                                                                                                                                                                                                                                                                                                                                                                                                                                                                                                                                                                                                                                                                                                                                                                                                                                                                                                                                                                                                                                                                                                                                                                                                                                                                                                                                                                                                                                                                                                                                                                                                                                                                                                                                                                                                                                                                                                                                                                                                                                                                                                                                                                                                                                                                                                                                                                                                                                                                                                                                                                                                                                                                                                                                                                                                                                                                                                                                                                                                                                                                                                                                                                                                                                                                                                                                                                                                                                                                                                                                                                                                                                                                                                                                                                                                                                                                                                                                                                                                                                                                                                                                                                                                                                                                                                                                                                                                                                                                                                                                                                                                                                                                                                                                                                                                                                                                                                                                                                                                                                                                                                                                                                                                                                                                                                                                                                                                                                                                                                                                     Iteration     6 Dimension    18 NMult    15 NNew      3
 Iteration     7 Dimension    21 NMult    18 NNew      3
 Iteration     8 Dimension    24 NMult    21 NNew      3
 Iteration     9 Dimension    27 NMult    24 NNew      3
 Iteration    10 Dimension    30 NMult    27 NNew      3
 Iteration    11 Dimension    33 NMult    30 NNew      3
 Iteration    12 Dimension    36 NMult    33 NNew      3
 Iteration    13 Dimension    39 NMult    36 NNew      3
 Iteration    14 Dimension    41 NMult    39 NNew      2
 Iteration    15 Dimension    42 NMult    41 NNew      1
 ***********************************************************************
 Excited states from <AA,BB:AA,BB> singles matrix:
 ***********************************************************************
 
 ExtSpn:  IState=     1 X2= 1.000 Y2= 0.000 X2-Y2-1=-8.88D-16
          S2Grnd=  2.026 Ra=  0.009 Rb=  0.017 T=  0.017 S2Ext=  0.042 S2=  2.069
 ExtSpn:  IState=     2 X2= 1.000 Y2= 0.000 X2-Y2-1= 1.11D-15
          S2Grnd=  2.026 Ra=  0.002 Rb=  0.009 T= -0.006 S2Ext=  0.005 S2=  2.031
 ExtSpn:  IState=     3 X2= 1.000 Y2= 0.000 X2-Y2-1= 4.44D-16
          S2Grnd=  2.026 Ra=  0.000 Rb=  0.008 T=  0.002 S2Ext=  0.010 S2=  2.037
 Ground to excited state transition densities written to RWF  633
 Ground to excited state transition electric dipole moments (Au):
       state          X           Y           Z        Dip. S.      Osc.
         1        -0.2924      0.7901     -0.1357      0.7281      0.0124
         2        -0.2165      0.0914      0.1156      0.0686      0.0027
         3        -0.0029      0.0128      0.0114      0.0003      0.0000
 Ground to excited state transition velocity dipole moments (Au):
       state          X           Y           Z        Dip. S.      Osc.
         1         0.0079      0.0099     -0.0112      0.0003      0.0075
         2        -0.0270     -0.0011      0.0205      0.0012      0.0130
         3        -0.0008     -0.0003      0.0011      0.0000      0.0000
 Ground to excited state transition magnetic dipole moments (Au):
       state          X           Y           Z
         1         0.4135      0.2810      0.5972
         2         0.3025      0.1480      0.4171
         3         0.2163      0.0667     -0.1547
 Ground to excited state transition velocity quadrupole moments (Au):
       state          XX          YY          ZZ          XY          XZ          YZ
         1         0.1612     -0.1463      0.0738      0.0533     -0.1229      0.0583
         2        -0.0381     -0.0037     -0.1174     -0.2356      0.1004      0.1777
         3        -0.0002     -0.0047     -0.0036     -0.0070      0.0021      0.0097
 <0|del|b> * <b|rxdel|0> + <0|del|b> * <b|delr+rdel|0>
 Rotatory Strengths (R) in cgs (10**-40 erg-esu-cm/Gauss)
       state          XX          YY          ZZ    R(velocity)    E-M Angle
         1       -45.6410    -33.1484     60.5166     -6.0909       92.87
         2        21.8915      2.4589    -21.6490      0.9004       89.29
         3        -1.0083     -1.7826     -0.9677     -1.2528      162.47
 1/2[<0|r|b>*<b|rxdel|0> + (<0|rxdel|b>*<b|r|0>)*]
 Rotatory Strengths (R) in cgs (10**-40 erg-esu-cm/Gauss)
       state          XX          YY          ZZ     R(length)
         1        85.5195   -156.9879     57.3119     -4.7188
         2        46.3162     -9.5707    -34.0839      0.8872
         3         0.4398     -0.6031      1.2519      0.3629
  1/2[<0|del|b>*<b|r|0> + (<0|r|b>*<b|del|0>)*] (Au)
       state          X           Y           Z        Dip. S.   Osc.(frdel)
         1        -0.0023      0.0078      0.0015     -0.0071     -0.0047
         2         0.0059     -0.0001      0.0024     -0.0081     -0.0054
         3         0.0000     -0.0000      0.0000     -0.0000     -0.0000

 Excitation energies and oscillator strengths:
 
 Excited state symmetry could not be determined.
 Excited State   1:  3.045-?Sym    0.6945 eV 1785.23 nm  f=0.0124  <S**2>=2.069
     38B -> 40B        0.95104
     39B -> 40B        0.27013
 This state for optimization and/or second-order correction.
 Total Energy, E(CIS/TDA) =  -551.040827062    
 Copying the excited state density for this state as the 1-particle RhoCI density.
 
 Excited state symmetry could not be determined.
 Excited State   2:  3.021-?Sym    1.6163 eV  767.07 nm  f=0.0027  <S**2>=2.031
     41A -> 42A        0.25621
     38B -> 40B        0.25637
     39B -> 40B       -0.92063
 
 Excited state symmetry could not be determined.
 Excited State   3:  3.024-?Sym    1.7939 eV  691.15 nm  f=0.0000  <S**2>=2.037
     36B -> 40B       -0.26129
     37B -> 40B       -0.92145
     37B -> 41B        0.20517
     37B -> 42B       -0.12236
 SavETr:  write IOETrn=   770 NScale= 10 NData=  16 NLR=1 NState=    3 LETran=      64.
          IDoAtm=111111111111111111
 NEqPCM:  Using equilibrium solvation (IEInf=0, Eps=  78.3553, EpsInf=   1.7778)
          Differentiating once with respect to electric field.
                with respect to dipole field.
          Differentiating once with respect to nuclear coordinates.
 Keep R1 and R2 ints in memory in canonical form, NReq=587106843.
          There are     1 degrees of freedom in the 1st order CPHF.  IDoFFX=0 NUNeed=     1.
 LinEq1:  Iter=  0 NonCon=     1 RMS=3.88D-03 Max=1.37D-01 NDo=     1
 AX will form     1 AO Fock derivatives at one time.
 LinEq1:  Iter=  1 NonCon=     1 RMS=2.54D-03 Max=1.29D-01 NDo=     1
 LinEq1:  Iter=  2 NonCon=     1 RMS=7.57D-04 Max=4.82D-02 NDo=     1
 LinEq1:  Iter=  3 NonCon=     1 RMS=7.08D-04 Max=3.25D-02 NDo=     1
 LinEq1:  Iter=  4 NonCon=     1 RMS=3.78D-04 Max=1.86D-02 NDo=     1
