 Entering Gaussian System, Link 0=g16
 Initial command:
 /arc/software/Gaussian/g16.c01/l1.exe "/tmp/slurm/1118368/Gau-131265.inp" -scrdir="/tmp/slurm/1118368/"
 Entering Link 1 = /arc/software/Gaussian/g16.c01/l1.exe PID=    131267.
  
 Copyright (c) 1988-2019, Gaussian, Inc.  All Rights Reserved.
  
 This is part of the Gaussian(R) 16 program.  It is based on
 the Gaussian(R) 09 system (copyright 2009, Gaussian, Inc.),
 the Gaussian(R) 03 system (copyright 2003, Gaussian, Inc.),
 the Gaussian(R) 98 system (copyright 1998, Gaussian, Inc.),
 the Gaussian(R) 94 system (copyright 1995, Gaussian, Inc.),
 the Gaussian 92(TM) system (copyright 1992, Gaussian, Inc.),
 the Gaussian 90(TM) system (copyright 1990, Gaussian, Inc.),
 the Gaussian 88(TM) system (copyright 1988, Gaussian, Inc.),
 the Gaussian 86(TM) system (copyright 1986, Carnegie Mellon
 University), and the Gaussian 82(TM) system (copyright 1983,
 Carnegie Mellon University). Gaussian is a federally registered
 trademark of Gaussian, Inc.
  
 This software contains proprietary and confidential information,
 including trade secrets, belonging to Gaussian, Inc.
  
 This software is provided under written license and may be
 used, copied, transmitted, or stored only in accord with that
 written license.
  
 The following legend is applicable only to US Government
 contracts under FAR:
  
                    RESTRICTED RIGHTS LEGEND
  
 Use, reproduction and disclosure by the US Government is
 subject to restrictions as set forth in subparagraphs (a)
 and (c) of the Commercial Computer Software - Restricted
 Rights clause in FAR 52.227-19.
  
 Gaussian, Inc.
 340 Quinnipiac St., Bldg. 40, Wallingford CT 06492
  
  
 ---------------------------------------------------------------
 Warning -- This program may not be used in any manner that
 competes with the business of Gaussian, Inc. or will provide
 assistance to any competitor of Gaussian, Inc.  The licensee
 of this program is prohibited from giving any competitor of
 Gaussian, Inc. access to this program.  By using this program,
 the user acknowledges that Gaussian, Inc. is engaged in the
 business of creating and licensing software in the field of
 computational chemistry and represents and warrants to the
 licensee that it is not a competitor of Gaussian, Inc. and that
 it will not use this program in any manner prohibited above.
 ---------------------------------------------------------------
  

 Cite this work as:
 Gaussian 16, Revision C.01,
 M. J. Frisch, G. W. Trucks, H. B. Schlegel, G. E. Scuseria, 
 M. A. Robb, J. R. Cheeseman, G. Scalmani, V. Barone, 
 G. A. Petersson, H. Nakatsuji, X. Li, M. Caricato, A. V. Marenich, 
 J. Bloino, B. G. Janesko, R. Gomperts, B. Mennucci, H. P. Hratchian, 
 J. V. Ortiz, A. F. Izmaylov, J. L. Sonnenberg, D. Williams-Young, 
 F. Ding, F. Lipparini, F. Egidi, J. Goings, B. Peng, A. Petrone, 
 T. Henderson, D. Ranasinghe, V. G. Zakrzewski, J. Gao, N. Rega, 
 G. Zheng, W. Liang, M. Hada, M. Ehara, K. Toyota, R. Fukuda, 
 J. Hasegawa, M. Ishida, T. Nakajima, Y. Honda, O. Kitao, H. Nakai, 
 T. Vreven, K. Throssell, J. A. Montgomery, Jr., J. E. Peralta, 
 F. Ogliaro, M. J. Bearpark, J. J. Heyd, E. N. Brothers, K. N. Kudin, 
 V. N. Staroverov, T. A. Keith, R. Kobayashi, J. Normand, 
 K. Raghavachari, A. P. Rendell, J. C. Burant, S. S. Iyengar, 
 J. Tomasi, M. Cossi, J. M. Millam, M. Klene, C. Adamo, R. Cammi, 
 J. W. Ochterski, R. L. Martin, K. Morokuma, O. Farkas, 
 J. B. Foresman, and D. J. Fox, Gaussian, Inc., Wallingford CT, 2019.
 
 ******************************************
 Gaussian 16:  ES64L-G16RevC.01  3-Jul-2019
                 6-Jun-2024 
 ******************************************
 %chk=pNP.chk
 %mem=128GB
 %nprocshared=4
 Will use up to    4 processors via shared memory.
 ----------------------------------------------------------------------
 # opt(MaxCycles=500, CalcFC) M062X/6-311g* TDA=(triplet,root=1) scrf=(
 solvent=water) int=ultrafine Nosymm
 ----------------------------------------------------------------------
 1/6=500,10=4,18=20,19=15,26=6,38=1/1,3;
 2/9=110,12=2,15=1,17=6,18=5,40=1/2;
 3/5=4,6=6,7=1,11=9,25=1,30=1,70=2201,71=2,72=1,74=-55,75=-5,140=1/1,2,3,8;
 4//1;
 5/5=2,38=5,53=1/2;
 8/6=1,10=2,107=1/1;
 9/8=1,15=3,42=1,48=3/14;
 10/5=3004,20=4,28=1,31=1/2;
 11/6=1,8=1,12=-1,16=1,31=1,42=3/1,2,10;
 10/6=3,21=1,28=1,31=1/2,14;
 6/7=2,8=2,9=2,10=2/1;
 7/10=1,12=6,13=8,14=1,25=1,30=1,44=2/1,2,3,16;
 1/6=500,10=4,18=20,19=15,26=6/3(2);
 2/9=110,15=1/2;
 99//99;
 2/9=110,15=1/2;
 3/5=4,6=6,7=1,11=9,25=1,30=1,70=2205,71=1,72=1,74=-55,75=-5/1,2,3,8;
 4/5=5,16=3,69=1/1;
 5/5=2,38=5,53=1/2;
 8/6=1,10=2,107=1/1;
 9/8=1,15=2,42=1,48=3,49=4/14;
 10/5=4,28=1,31=1/2;
 7/12=6,13=5,14=1,30=1/1,2,3,16;
 1/6=500,18=20,19=15,26=6/3(-8);
 2/9=110,15=1/2;
 6/7=2,8=2,9=2,10=2/1;
 99/9=10/99;
 ---------------------------------------
 4-nitrophenol triplet state calculation
 ---------------------------------------
 Symbolic Z-matrix:
 Charge =  0 Multiplicity = 3
 O                     2.25062   0.00033   0.01448 
 O                    -3.90421   1.20911  -0.0418 
 O                    -3.95859  -0.98397  -0.04125 
 N                    -3.35469   0.09827  -0.03276 
 C                    -1.88685   0.06034  -0.0134 
 C                    -1.16186   1.25951  -0.00464 
 C                    -1.22328  -1.17612  -0.00639 
 C                     0.88784  -0.01324   0.00957 
 C                     0.23317   1.21529   0.00727 
 C                     0.17383  -1.20943   0.0047 
 H                    -1.66144   2.22584  -0.00829 
 H                    -1.77615  -2.11345  -0.01091 
 H                     0.8101    2.13692   0.0125 
 H                     0.68349  -2.16879   0.01019 
 H                     2.57841  -0.9144   -0.00989 
 

 GradGradGradGradGradGradGradGradGradGradGradGradGradGradGradGradGradGrad
 Berny optimization.
 Initialization pass.
                           ----------------------------
                           !    Initial Parameters    !
                           ! (Angstroms and Degrees)  !
 --------------------------                            --------------------------
 ! Name  Definition              Value          Derivative Info.                !
 --------------------------------------------------------------------------------
 ! R1    R(1,8)                  1.3629         calculate D2E/DX2 analytically  !
 ! R2    R(1,15)                 0.972          calculate D2E/DX2 analytically  !
 ! R3    R(2,4)                  1.2394         calculate D2E/DX2 analytically  !
 ! R4    R(3,4)                  1.2394         calculate D2E/DX2 analytically  !
 ! R5    R(4,5)                  1.4685         calculate D2E/DX2 analytically  !
 ! R6    R(5,6)                  1.4013         calculate D2E/DX2 analytically  !
 ! R7    R(5,7)                  1.4033         calculate D2E/DX2 analytically  !
 ! R8    R(6,9)                  1.3958         calculate D2E/DX2 analytically  !
 ! R9    R(6,11)                 1.0878         calculate D2E/DX2 analytically  !
 ! R10   R(7,10)                 1.3976         calculate D2E/DX2 analytically  !
 ! R11   R(7,12)                 1.0882         calculate D2E/DX2 analytically  !
 ! R12   R(8,9)                  1.3921         calculate D2E/DX2 analytically  !
 ! R13   R(8,10)                 1.3931         calculate D2E/DX2 analytically  !
 ! R14   R(9,13)                 1.0873         calculate D2E/DX2 analytically  !
 ! R15   R(10,14)                1.0863         calculate D2E/DX2 analytically  !
 ! A1    A(8,1,15)             109.1326         calculate D2E/DX2 analytically  !
 ! A2    A(2,4,3)              124.5115         calculate D2E/DX2 analytically  !
 ! A3    A(2,4,5)              117.8041         calculate D2E/DX2 analytically  !
 ! A4    A(3,4,5)              117.6842         calculate D2E/DX2 analytically  !
 ! A5    A(4,5,6)              119.6779         calculate D2E/DX2 analytically  !
 ! A6    A(4,5,7)              119.7024         calculate D2E/DX2 analytically  !
 ! A7    A(6,5,7)              120.6196         calculate D2E/DX2 analytically  !
 ! A8    A(5,6,9)              119.3423         calculate D2E/DX2 analytically  !
 ! A9    A(5,6,11)             121.5032         calculate D2E/DX2 analytically  !
 ! A10   A(9,6,11)             119.1545         calculate D2E/DX2 analytically  !
 ! A11   A(5,7,10)             119.5881         calculate D2E/DX2 analytically  !
 ! A12   A(5,7,12)             121.2432         calculate D2E/DX2 analytically  !
 ! A13   A(10,7,12)            119.1687         calculate D2E/DX2 analytically  !
 ! A14   A(1,8,9)              117.4823         calculate D2E/DX2 analytically  !
 ! A15   A(1,8,10)             121.404          calculate D2E/DX2 analytically  !
 ! A16   A(9,8,10)             121.1136         calculate D2E/DX2 analytically  !
 ! A17   A(6,9,8)              119.8679         calculate D2E/DX2 analytically  !
 ! A18   A(6,9,13)             120.2317         calculate D2E/DX2 analytically  !
 ! A19   A(8,9,13)             119.9003         calculate D2E/DX2 analytically  !
 ! A20   A(7,10,8)             119.4679         calculate D2E/DX2 analytically  !
 ! A21   A(7,10,14)            119.3465         calculate D2E/DX2 analytically  !
 ! A22   A(8,10,14)            121.1856         calculate D2E/DX2 analytically  !
 ! D1    D(15,1,8,9)          -178.4083         calculate D2E/DX2 analytically  !
 ! D2    D(15,1,8,10)            1.4837         calculate D2E/DX2 analytically  !
 ! D3    D(2,4,5,6)              0.0559         calculate D2E/DX2 analytically  !
 ! D4    D(2,4,5,7)           -179.8245         calculate D2E/DX2 analytically  !
 ! D5    D(3,4,5,6)            179.9349         calculate D2E/DX2 analytically  !
 ! D6    D(3,4,5,7)              0.0545         calculate D2E/DX2 analytically  !
 ! D7    D(4,5,6,9)           -179.6942         calculate D2E/DX2 analytically  !
 ! D8    D(4,5,6,11)             0.2203         calculate D2E/DX2 analytically  !
 ! D9    D(7,5,6,9)              0.1851         calculate D2E/DX2 analytically  !
 ! D10   D(7,5,6,11)          -179.9004         calculate D2E/DX2 analytically  !
 ! D11   D(4,5,7,10)           179.6539         calculate D2E/DX2 analytically  !
 ! D12   D(4,5,7,12)            -0.2544         calculate D2E/DX2 analytically  !
 ! D13   D(6,5,7,10)            -0.2253         calculate D2E/DX2 analytically  !
 ! D14   D(6,5,7,12)           179.8664         calculate D2E/DX2 analytically  !
 ! D15   D(5,6,9,8)              0.0355         calculate D2E/DX2 analytically  !
 ! D16   D(5,6,9,13)           179.898          calculate D2E/DX2 analytically  !
 ! D17   D(11,6,9,8)          -179.881          calculate D2E/DX2 analytically  !
 ! D18   D(11,6,9,13)           -0.0185         calculate D2E/DX2 analytically  !
 ! D19   D(5,7,10,8)             0.0441         calculate D2E/DX2 analytically  !
 ! D20   D(5,7,10,14)          179.9944         calculate D2E/DX2 analytically  !
 ! D21   D(12,7,10,8)          179.9544         calculate D2E/DX2 analytically  !
 ! D22   D(12,7,10,14)          -0.0953         calculate D2E/DX2 analytically  !
 ! D23   D(1,8,9,6)            179.674          calculate D2E/DX2 analytically  !
 ! D24   D(1,8,9,13)            -0.1889         calculate D2E/DX2 analytically  !
 ! D25   D(10,8,9,6)            -0.2183         calculate D2E/DX2 analytically  !
 ! D26   D(10,8,9,13)          179.9187         calculate D2E/DX2 analytically  !
 ! D27   D(1,8,10,7)          -179.7105         calculate D2E/DX2 analytically  !
 ! D28   D(1,8,10,14)            0.3401         calculate D2E/DX2 analytically  !
 ! D29   D(9,8,10,7)             0.1776         calculate D2E/DX2 analytically  !
 ! D30   D(9,8,10,14)         -179.7718         calculate D2E/DX2 analytically  !
 --------------------------------------------------------------------------------
 Trust Radius=3.00D-01 FncErr=5.00D-06 GrdErr=5.00D-06 EigMax=2.50D+02 EigMin=1.00D-04
 Number of steps in this run=    100 maximum allowed number of steps=    100.
 GradGradGradGradGradGradGradGradGradGradGradGradGradGradGradGradGradGrad

                          Input orientation:                          
 ---------------------------------------------------------------------
 Center     Atomic      Atomic             Coordinates (Angstroms)
 Number     Number       Type             X           Y           Z
 ---------------------------------------------------------------------
      1          8           0        2.250620    0.000330    0.014480
      2          8           0       -3.904210    1.209110   -0.041800
      3          8           0       -3.958590   -0.983970   -0.041250
      4          7           0       -3.354690    0.098270   -0.032760
      5          6           0       -1.886850    0.060340   -0.013400
      6          6           0       -1.161860    1.259510   -0.004640
      7          6           0       -1.223280   -1.176120   -0.006390
      8          6           0        0.887840   -0.013240    0.009570
      9          6           0        0.233170    1.215290    0.007270
     10          6           0        0.173830   -1.209430    0.004700
     11          1           0       -1.661440    2.225840   -0.008290
     12          1           0       -1.776150   -2.113450   -0.010910
     13          1           0        0.810100    2.136920    0.012500
     14          1           0        0.683490   -2.168790    0.010190
     15          1           0        2.578410   -0.914400   -0.009890
 ---------------------------------------------------------------------
                    Distance matrix (angstroms):
                    1          2          3          4          5
     1  O    0.000000
     2  O    6.272659   0.000000
     3  O    6.286990   2.193754   0.000000
     4  N    5.606365   1.239363   1.239359   0.000000
     5  C    4.137999   2.321685   2.320230   1.468458   0.000000
     6  C    3.637433   2.743065   3.585560   2.481486   1.401319
     7  C    3.667758   3.588588   2.742272   2.483480   1.403285
     8  C    1.362856   4.945758   4.942953   4.244206   2.775760
     9  C    2.355055   4.137676   4.733915   3.757935   2.414295
    10  C    2.403471   4.741509   4.138821   3.763235   2.420547
    11  H    4.500847   2.462698   3.947260   2.719237   2.177206
    12  H    4.547921   3.945757   2.457578   2.717346   2.176608
    13  H    2.576843   4.805049   5.699408   4.637199   3.403879
    14  H    2.676004   5.697359   4.791174   4.631231   3.402385
    15  H    0.971993   6.821633   6.537445   6.018945   4.570413
                    6          7          8          9         10
     6  C    0.000000
     7  C    2.436405   0.000000
     8  C    2.412750   2.410264   0.000000
     9  C    1.395781   2.800049   1.392079   0.000000
    10  C    2.807102   1.397551   1.393092   2.425447   0.000000
    11  H    1.087836   3.430061   3.393026   2.147324   3.894800
    12  H    3.428447   1.088243   3.392366   3.888214   2.149399
    13  H    2.158418   3.887316   2.151567   1.087326   3.406312
    14  H    3.893427   2.149754   2.165215   3.413912   1.086349
    15  H    4.326145   3.810690   1.915854   3.167969   2.422656
                   11         12         13         14         15
    11  H    0.000000
    12  H    4.340807   0.000000
    13  H    2.473226   4.975428   0.000000
    14  H    4.981146   2.460353   4.307572   0.000000
    15  H    5.276120   4.516626   3.526751   2.272580   0.000000
 Symmetry turned off by external request.
 Stoichiometry    C6H5NO3(3)
 Framework group  C1[X(C6H5NO3)]
 Deg. of freedom    39
 Full point group                 C1      NOp   1
 Rotational constants (GHZ):           3.9168276           0.8121407           0.6726732
 Standard basis: 6-311G(d) (5D, 7F)
   195 basis functions,   345 primitive gaussians,   205 cartesian basis functions
    37 alpha electrons       35 beta electrons
       nuclear repulsion energy       493.1831877353 Hartrees.
 NAtoms=   15 NActive=   15 NUniq=   15 SFac= 1.00D+00 NAtFMM=   60 NAOKFM=F Big=F
 Integral buffers will be    131072 words long.
 Regular integral format.
 Two-electron integral symmetry is turned off.
 Force inversion solution in PCM.
 ------------------------------------------------------------------------------
 Polarizable Continuum Model (PCM)
 =================================
 Model                : PCM.
 Atomic radii         : UFF (Universal Force Field).
 Polarization charges : Total charges.
 Charge compensation  : None.
 Solution method      : Matrix inversion.
 Cavity type          : Scaled VdW (van der Waals Surface) (Alpha=1.100).
 Cavity algorithm     : GePol (No added spheres)
                        Default sphere list used, NSphG=   15.
                        Lebedev-Laikov grids with approx.  5.0 points / Ang**2.
                        Smoothing algorithm: York/Karplus (Gamma=1.0000).
                        Polarization charges: spherical gaussians, with
                                              point-specific exponents (IZeta= 3).
                        Self-potential: point-specific (ISelfS= 7).
                        Self-field    : sphere-specific E.n sum rule (ISelfD= 2).
 1st derivatives      : Analytical E(r).r(x)/FMM algorithm (CHGder, D1EAlg=3).
                        Cavity 1st derivative terms included.
 2nd derivatives      : Analytical E(r).r(xy)/FMM algorithm (CHGder, D2EAlg=3).
                        Cavity 2nd derivative terms included.
 Solvent              : Water, Eps=  78.355300 Eps(inf)=   1.777849
 ------------------------------------------------------------------------------
 Spheres list:
 ISph  on   Nord     Re0    Alpha      Xe            Ye            Ze
    1   O      1    1.7500  1.100      2.250620      0.000330      0.014480
    2   O      2    1.7500  1.100     -3.904210      1.209110     -0.041800
    3   O      3    1.7500  1.100     -3.958590     -0.983970     -0.041250
    4   N      4    1.8300  1.100     -3.354690      0.098270     -0.032760
    5   C      5    1.9255  1.100     -1.886850      0.060340     -0.013400
    6   C      6    1.9255  1.100     -1.161860      1.259510     -0.004640
    7   C      7    1.9255  1.100     -1.223280     -1.176120     -0.006390
    8   C      8    1.9255  1.100      0.887840     -0.013240      0.009570
    9   C      9    1.9255  1.100      0.233170      1.215290      0.007270
   10   C     10    1.9255  1.100      0.173830     -1.209430      0.004700
   11   H     11    1.4430  1.100     -1.661440      2.225840     -0.008290
   12   H     12    1.4430  1.100     -1.776150     -2.113450     -0.010910
   13   H     13    1.4430  1.100      0.810100      2.136920      0.012500
   14   H     14    1.4430  1.100      0.683490     -2.168790      0.010190
   15   H     15    1.4430  1.100      2.578410     -0.914400     -0.009890
 ------------------------------------------------------------------------------
 One-electron integrals computed using PRISM.
 NBasis=   195 RedAO= T EigKep=  2.20D-04  NBF=   195
 NBsUse=   195 1.00D-06 EigRej= -1.00D+00 NBFU=   195
 ExpMin= 1.03D-01 ExpMax= 8.59D+03 ExpMxC= 1.30D+03 IAcc=3 IRadAn=         5 AccDes= 0.00D+00
 Harris functional with IExCor= 1009 and IRadAn=       5 diagonalized for initial guess.
 HarFok:  IExCor= 1009 AccDes= 0.00D+00 IRadAn=         5 IDoV= 1 UseB2=F ITyADJ=14
 ICtDFT=  3500011 ScaDFX=  1.000000  1.000000  1.000000  1.000000
 FoFCou: FMM=F IPFlag=           0 FMFlag=      100000 FMFlg1=           0
         NFxFlg=           0 DoJE=T BraDBF=F KetDBF=T FulRan=T
         wScrn=  0.000000 ICntrl=       500 IOpCl=  0 I1Cent=   200000004 NGrid=           0
         NMat0=    1 NMatS0=      1 NMatT0=    0 NMatD0=    1 NMtDS0=    0 NMtDT0=    0
 Symmetry not used in FoFCou.
 Initial guess <Sx>= 0.0000 <Sy>= 0.0000 <Sz>= 1.0000 <S**2>= 2.0000 S= 1.0000
 Keep R1 and R2 ints in memory in canonical form, NReq=369583074.
 Requested convergence on RMS density matrix=1.00D-08 within 128 cycles.
 Requested convergence on MAX density matrix=1.00D-06.
 Requested convergence on             energy=1.00D-06.
 No special actions if energy rises.
 Inv3:  Mode=1 IEnd=     5846448.
 Iteration    1 A*A^-1 deviation from unit magnitude is 3.33D-15 for   1395.
 Iteration    1 A*A^-1 deviation from orthogonality  is 2.04D-15 for   1391   1129.
 Iteration    1 A^-1*A deviation from unit magnitude is 3.55D-15 for   1395.
 Iteration    1 A^-1*A deviation from orthogonality  is 1.74D-15 for   1020    354.
 Error on total polarization charges =  0.00623
 SCF Done:  E(UM062X) =  -511.775607465     A.U. after   22 cycles
            NFock= 22  Conv=0.64D-08     -V/T= 2.0028
 <Sx>= 0.0000 <Sy>= 0.0000 <Sz>= 1.0000 <S**2>= 2.0082 S= 1.0027
 <L.S>=  0.00000000000    
 Annihilation of the first spin contaminant:
 S**2 before annihilation     2.0082,   after     2.0000
 DoSCS=F DFT=T ScalE2(SS,OS)=  1.000000  1.000000
 ExpMin= 1.03D-01 ExpMax= 8.59D+03 ExpMxC= 1.30D+03 IAcc=3 IRadAn=         5 AccDes= 0.00D+00
 HarFok:  IExCor=  205 AccDes= 0.00D+00 IRadAn=         5 IDoV=-2 UseB2=F ITyADJ=14
 ICtDFT= 12500011 ScaDFX=  1.000000  1.000000  1.000000  1.000000
 Range of M.O.s used for correlation:    11   195
 NBasis=   195 NAE=    37 NBE=    35 NFC=    10 NFV=     0
 NROrb=    185 NOA=    27 NOB=    25 NVA=   158 NVB=   160

 **** Warning!!: The largest alpha MO coefficient is  0.15212642D+02


 **** Warning!!: The largest beta MO coefficient is  0.17571397D+02

 Ignoring spin specification with unrestricted ground state.
 Keep R1, R2, and R3 ints in memory in canonical form, NReq=562134108.
 NEqPCM:  Using equilibrium solvation (IEInf=0, Eps=  78.3553, EpsInf=   1.7778)
    12 initial guesses have been made.
 Convergence on wavefunction:    0.000001000000000
 Iteration     1 Dimension    12 NMult     0 NNew     12
 CISAX will form    12 AO SS matrices at one time.
 New state      1 was old state      4
 New state      2 was old state      1
 New state      3 was old state      2
 Iteration     2 Dimension    24 NMult    12 NNew     12
 Iteration     3 Dimension    27 NMult    24 NNew      3
 Iteration     4 Dimension    30 NMult    27 NNew      3
 Iteration     5 Dimension    33 NMult    30 NNew      3
 Iteration     6 Dimension    36 NMult    33 NNew      3
 Iteration     7 Dimension    39 NMult    36 NNew      3
 Iteration     8 Dimension    42 NMult    39 NNew      3
 Iteration     9 Dimension    45 NMult    42 NNew      3
 Iteration    10 Dimension    48 NMult    45 NNew      3
 Iteration    11 Dimension    50 NMult    48 NNew      2
 ***********************************************************************
 Excited states from <AA,BB:AA,BB> singles matrix:
 ***********************************************************************
 
 ExtSpn:  IState=     1 X2= 1.000 Y2= 0.000 X2-Y2-1=-4.44D-16
          S2Grnd=  2.008 Ra=  0.014 Rb=  0.016 T=  0.015 S2Ext=  0.045 S2=  2.053
 ExtSpn:  IState=     2 X2= 1.000 Y2= 0.000 X2-Y2-1= 4.44D-16
          S2Grnd=  2.008 Ra=  0.011 Rb=  0.015 T= -0.008 S2Ext=  0.018 S2=  2.027
 ExtSpn:  IState=     3 X2= 1.000 Y2= 0.000 X2-Y2-1= 4.44D-16
          S2Grnd=  2.008 Ra=  0.000 Rb=  0.007 T= -0.000 S2Ext=  0.007 S2=  2.015
 Ground to excited state transition densities written to RWF  633
 Ground to excited state transition electric dipole moments (Au):
       state          X           Y           Z        Dip. S.      Osc.
         1         0.0222     -0.1770     -0.0003      0.0318      0.0008
         2        -0.0025      0.5500     -0.0000      0.3025      0.0101
         3         0.0022     -0.0048     -0.0027      0.0000      0.0000
 Ground to excited state transition velocity dipole moments (Au):
       state          X           Y           Z        Dip. S.      Osc.
         1         0.0020      0.0016     -0.0000      0.0000      0.0001
         2         0.0024      0.0500      0.0000      0.0025      0.0334
         3        -0.0000     -0.0003     -0.0001      0.0000      0.0000
 Ground to excited state transition magnetic dipole moments (Au):
       state          X           Y           Z
         1         0.0067     -0.0001     -0.7402
         2         0.0018     -0.0003     -0.2754
         3        -0.2373     -0.0114     -0.0014
 Ground to excited state transition velocity quadrupole moments (Au):
       state          XX          YY          ZZ          XY          XZ          YZ
         1        -0.0203      0.0062      0.0003     -0.3162     -0.0000     -0.0032
         2        -0.0275      0.0168      0.0003     -0.2651     -0.0002     -0.0028
         3         0.0010      0.0003     -0.0000      0.0014      0.0005      0.0025
 <0|del|b> * <b|rxdel|0> + <0|del|b> * <b|delr+rdel|0>
 Rotatory Strengths (R) in cgs (10**-40 erg-esu-cm/Gauss)
       state          XX          YY          ZZ    R(velocity)    E-M Angle
         1         0.1507      0.1260      0.1792      0.1520       90.00
         2        -0.0724     -0.0172     -0.1103     -0.0666       90.00
         3         0.0263      0.0636      0.0862      0.0587       90.00
 1/2[<0|r|b>*<b|rxdel|0> + (<0|rxdel|b>*<b|r|0>)*]
 Rotatory Strengths (R) in cgs (10**-40 erg-esu-cm/Gauss)
       state          XX          YY          ZZ     R(length)
         1        -0.1055     -0.0179     -0.1426     -0.0886
         2         0.0032      0.1199     -0.0048      0.0394
         3         0.3762     -0.0390     -0.0027      0.1115
  1/2[<0|del|b>*<b|r|0> + (<0|r|b>*<b|del|0>)*] (Au)
       state          X           Y           Z        Dip. S.   Osc.(frdel)
         1         0.0000     -0.0003      0.0000      0.0002      0.0002
         2        -0.0000      0.0275     -0.0000     -0.0275     -0.0183
         3        -0.0000      0.0000      0.0000     -0.0000     -0.0000

 Excitation energies and oscillator strengths:
 
 Excited state symmetry could not be determined.
 Excited State   1:  3.035-?Sym    1.0317 eV 1201.74 nm  f=0.0008  <S**2>=2.053
     37A -> 38A        0.15234
     33B -> 36B        0.81182
     35B -> 36B        0.54511
 This state for optimization and/or second-order correction.
 Total Energy, E(CIS/TDA) =  -511.737693137    
 Copying the excited state density for this state as the 1-particle RhoCI density.
 
 Excited state symmetry could not be determined.
 Excited State   2:  3.018-?Sym    1.3610 eV  910.97 nm  f=0.0101  <S**2>=2.027
     37A -> 38A       -0.26143
     33B -> 36B       -0.49566
     35B -> 36B        0.81168
     35B -> 37B        0.12315
 
 Excited state symmetry could not be determined.
 Excited State   3:  3.010-?Sym    1.4880 eV  833.24 nm  f=0.0000  <S**2>=2.015
     34B -> 36B        0.95339
     34B -> 37B        0.27141
     34B -> 40B       -0.10663
 SavETr:  write IOETrn=   770 NScale= 10 NData=  16 NLR=1 NState=    3 LETran=      64.
          IDoAtm=111111111111111
 NEqPCM:  Using equilibrium solvation (IEInf=0, Eps=  78.3553, EpsInf=   1.7778)
          Differentiating once with respect to electric field.
                with respect to dipole field.
          Differentiating once with respect to nuclear coordinates.
 Keep R1 and R2 ints in memory in canonical form, NReq=371034271.
          There are     1 degrees of freedom in the 1st order CPHF.  IDoFFX=0 NUNeed=     1.
 LinEq1:  Iter=  0 NonCon=     1 RMS=3.78D-03 Max=1.69D-01 NDo=     1
 AX will form     1 AO Fock derivatives at one time.
 LinEq1:  Iter=  1 NonCon=     1 RMS=2.51D-03 Max=1.51D-01 NDo=     1
 LinEq1:  Iter=  2 NonCon=     1 RMS=8.42D-04 Max=3.18D-02 NDo=     1
 LinEq1:  Iter=  3 NonCon=     1 RMS=7.06D-04 Max=3.86D-02 NDo=     1
 LinEq1:  Iter=  4 NonCon=     1 RMS=2.94D-04 Max=8.96D-03 NDo=     1
 LinEq1:  Iter=  5 NonCon=     1 RMS=2.21D-04 Max=7.66D-03 NDo=     1
 LinEq1:  Iter=  6 NonCon=     1 RMS=9.43D-05 Max=3.32D-03 NDo=     1
 LinEq1:  Iter=  7 NonCon=     1 RMS=8.08D-05 Max=3.97D-03 NDo=     1
 LinEq1:  Iter=  8 NonCon=     1 RMS=4.66D-05 Max=1.61D-03 NDo=     1
 LinEq1:  Iter=  9 NonCon=     1 RMS=2.09D-05 Max=7.16D-04 NDo=     1
 LinEq1:  Iter= 10 NonCon=     1 RMS=1.71D-05 Max=6.25D-04 NDo=     1
 LinEq1:  Iter= 11 NonCon=     1 RMS=7.14D-06 Max=2.35D-04 NDo=     1
 LinEq1:  Iter= 12 NonCon=     1 RMS=3.65D-06 Max=9.97D-05 NDo=     1
 LinEq1:  Iter= 13 NonCon=     1 RMS=1.73D-06 Max=5.51D-05 NDo=     1
 LinEq1:  Iter= 14 NonCon=     1 RMS=9.23D-07 Max=2.19D-05 NDo=     1
 LinEq1:  Iter= 15 NonCon=     1 RMS=3.53D-07 Max=9.08D-06 NDo=     1
 LinEq1:  Iter= 16 NonCon=     1 RMS=2.11D-07 Max=5.38D-06 NDo=     1
 LinEq1:  Iter= 17 NonCon=     1 RMS=1.38D-07 Max=4.79D-06 NDo=     1
 LinEq1:  Iter= 18 NonCon=     1 RMS=5.05D-08 Max=1.93D-06 NDo=     1
 LinEq1:  Iter= 19 NonCon=     1 RMS=2.25D-08 Max=9.99D-07 NDo=     1
 LinEq1:  Iter= 20 NonCon=     1 RMS=1.42D-08 Max=4.41D-07 NDo=     1
 LinEq1:  Iter= 21 NonCon=     1 RMS=4.57D-09 Max=1.61D-07 NDo=     1
 LinEq1:  Iter= 22 NonCon=     1 RMS=1.82D-09 Max=4.31D-08 NDo=     1
 LinEq1:  Iter= 23 NonCon=     1 RMS=9.02D-10 Max=2.62D-08 NDo=     1
 LinEq1:  Iter= 24 NonCon=     1 RMS=3.32D-10 Max=1.04D-08 NDo=     1
 LinEq1:  Iter= 25 NonCon=     1 RMS=8.62D-11 Max=2.03D-09 NDo=     1
 LinEq1:  Iter= 26 NonCon=     0 RMS=2.44D-11 Max=5.16D-10 NDo=     1
 Linear equations converged to 1.000D-10 1.000D-09 after    26 iterations.
          There are     1 degrees of freedom in the 1st order CPHF.  IDoFFX=0 NUNeed=     1.
 LinEq1:  Iter=  0 NonCon=     1 RMS=6.02D-02 Max=4.84D+00 NDo=     1
 LinEq1:  Iter=  1 NonCon=     1 RMS=1.26D-02 Max=4.27D-01 NDo=     1
 LinEq1:  Iter=  2 NonCon=     1 RMS=9.96D-03 Max=5.51D-01 NDo=     1
 LinEq1:  Iter=  3 NonCon=     1 RMS=5.94D-03 Max=2.91D-01 NDo=     1
 LinEq1:  Iter=  4 NonCon=     1 RMS=3.01D-03 Max=1.81D-01 NDo=     1
 LinEq1:  Iter=  5 NonCon=     1 RMS=1.12D-03 Max=3.17D-02 NDo=     1
 LinEq1:  Iter=  6 NonCon=     1 RMS=7.34D-04 Max=3.37D-02 NDo=     1
 LinEq1:  Iter=  7 NonCon=     1 RMS=2.60D-04 Max=8.81D-03 NDo=     1
 LinEq1:  Iter=  8 NonCon=     1 RMS=1.01D-04 Max=2.85D-03 NDo=     1
 LinEq1:  Iter=  9 NonCon=     1 RMS=7.16D-05 Max=2.18D-03 NDo=     1
 LinEq1:  Iter= 10 NonCon=     1 RMS=3.68D-05 Max=1.46D-03 NDo=     1
 LinEq1:  Iter= 11 NonCon=     1 RMS=2.08D-05 Max=6.70D-04 NDo=     1
 LinEq1:  Iter= 12 NonCon=     1 RMS=1.09D-05 Max=3.52D-04 NDo=     1
 LinEq1:  Iter= 13 NonCon=     1 RMS=6.21D-06 Max=2.51D-04 NDo=     1
 LinEq1:  Iter= 14 NonCon=     1 RMS=2.64D-06 Max=6.85D-05 NDo=     1
 LinEq1:  Iter= 15 NonCon=     1 RMS=1.22D-06 Max=7.99D-05 NDo=     1
 LinEq1:  Iter= 16 NonCon=     1 RMS=6.45D-07 Max=2.39D-05 NDo=     1
 LinEq1:  Iter= 17 NonCon=     1 RMS=3.44D-07 Max=1.60D-05 NDo=     1
 LinEq1:  Iter= 18 NonCon=     1 RMS=1.86D-07 Max=4.21D-06 NDo=     1
 LinEq1:  Iter= 19 NonCon=     1 RMS=1.10D-07 Max=3.95D-06 NDo=     1
 LinEq1:  Iter= 20 NonCon=     1 RMS=5.85D-08 Max=1.08D-06 NDo=     1
 LinEq1:  Iter= 21 NonCon=     1 RMS=2.12D-08 Max=4.02D-07 NDo=     1
 LinEq1:  Iter= 22 NonCon=     1 RMS=9.81D-09 Max=3.25D-07 NDo=     1
 LinEq1:  Iter= 23 NonCon=     1 RMS=3.56D-09 Max=1.07D-07 NDo=     1
 LinEq1:  Iter= 24 NonCon=     1 RMS=1.30D-09 Max=3.75D-08 NDo=     1
 LinEq1:  Iter= 25 NonCon=     1 RMS=3.04D-10 Max=5.65D-09 NDo=     1
 LinEq1:  Iter= 26 NonCon=     1 RMS=6.68D-11 Max=1.60D-09 NDo=     1
 LinEq1:  Iter= 27 NonCon=     0 RMS=2.07D-11 Max=7.96D-10 NDo=     1
 Linear equations converged to 1.000D-10 1.000D-09 after    27 iterations.
 End of Minotr F.D. properties file   721 does not exist.
 End of Minotr F.D. properties file   722 does not exist.
 End of Minotr F.D. properties file   788 does not exist.
 Symmetrizing basis deriv contribution to polar:
 IMax=3 JMax=2 DiffMx= 0.00D+00
 G2DrvN: will do    16 centers at a time, making    1 passes.
 Calling FoFCou, ICntrl=  3107 FMM=F I1Cent=   0 AccDes= 0.00D+00.
 NEqPCM:  Using equilibrium solvation (IEInf=0, Eps=  78.3553, EpsInf=   1.7778)
 G2PCM: DoFxE=T DoFxN=T DoGrad=T DoDP/DQ/DG/TGxP=FFFF NFrqRd=   0 IEInf=0 SqF1=F DoCFld=F IF1Alg=4.
 G2DrvN: will do    16 centers at a time, making    1 passes.
 Calling FoFCou, ICntrl=  3107 FMM=F I1Cent=   0 AccDes= 0.00D+00.
 NEqPCM:  Using equilibrium solvation (IEInf=0, Eps=  78.3553, EpsInf=   1.7778)
 G2PCM: DoFxE=T DoFxN=F DoGrad=F DoDP/DQ/DG/TGxP=FFFF NFrqRd=   0 IEInf=0 SqF1=F DoCFld=F IF1Alg=4.
 G2DrvN: will do    16 centers at a time, making    1 passes.
 Calling FoFCou, ICntrl=  3107 FMM=F I1Cent=   0 AccDes= 0.00D+00.
 NEqPCM:  Using equilibrium solvation (IEInf=0, Eps=  78.3553, EpsInf=   1.7778)
 G2PCM: DoFxE=T DoFxN=F DoGrad=F DoDP/DQ/DG/TGxP=FFFF NFrqRd=   0 IEInf=0 SqF1=T DoCFld=F IF1Alg=4.
 End of G2Drv F.D. properties file   721 does not exist.
 End of G2Drv F.D. properties file   722 does not exist.
 End of G2Drv F.D. properties file   788 does not exist.
          IDoAtm=111111111111111
 NEqPCM:  Using equilibrium solvation (IEInf=0, Eps=  78.3553, EpsInf=   1.7778)
          Differentiating once with respect to electric field.
                with respect to dipole field.
          Differentiating once with respect to nuclear coordinates.
 Keep R1 and R2 ints in memory in canonical form, NReq=371038742.
          There are    48 degrees of freedom in the 1st order CPHF.  IDoFFX=6 NUNeed=    48.
     45 vectors produced by pass  0 Test12= 2.38D-14 2.08D-09 XBig12= 3.72D+02 1.39D+01.
 AX will form    45 AO Fock derivatives at one time.
     45 vectors produced by pass  1 Test12= 2.38D-14 2.08D-09 XBig12= 3.86D+01 1.56D+00.
     45 vectors produced by pass  2 Test12= 2.38D-14 2.08D-09 XBig12= 2.70D+00 5.45D-01.
     45 vectors produced by pass  3 Test12= 2.38D-14 2.08D-09 XBig12= 4.94D-02 5.39D-02.
     45 vectors produced by pass  4 Test12= 2.38D-14 2.08D-09 XBig12= 4.90D-04 4.02D-03.
     45 vectors produced by pass  5 Test12= 2.38D-14 2.08D-09 XBig12= 6.53D-06 4.42D-04.
     45 vectors produced by pass  6 Test12= 2.38D-14 2.08D-09 XBig12= 5.60D-08 3.20D-05.
     34 vectors produced by pass  7 Test12= 2.38D-14 2.08D-09 XBig12= 3.81D-10 3.86D-06.
      7 vectors produced by pass  8 Test12= 2.38D-14 2.08D-09 XBig12= 2.78D-12 2.60D-07.
      3 vectors produced by pass  9 Test12= 2.38D-14 2.08D-09 XBig12= 1.71D-14 1.99D-08.
 InvSVY:  IOpt=1 It=  1 EMax= 1.07D-14
 Solved reduced A of dimension   359 with    48 vectors.
 Isotropic polarizability for W=    0.000000      154.47 Bohr**3.
 End of Minotr F.D. properties file   721 does not exist.
 End of Minotr F.D. properties file   722 does not exist.
 End of Minotr F.D. properties file   788 does not exist.
 This link is doing    48 degrees of freedom
 Form MO integral derivatives with frozen-active canonical formalism.
 CISSec: MDV=   17179861879
 Doing CIS/TDA second derivatives, IDoFFX=6 IOneXC=4 IRadAn=         1.
 Frozen orbitals handled with amplitudes over full window.
 Keep R1, R2, and R3 ints in memory in canonical form, NReq=553721009.
 CISAX will form    48 AO SS matrices at one time.
     45 vectors produced by pass  0 Test12= 1.72D-14 2.08D-09 XBig12= 1.13D+02 7.08D+00.
 AX will form    45 AO Fock derivatives at one time.
     45 vectors produced by pass  1 Test12= 1.72D-14 2.08D-09 XBig12= 6.68D+01 6.97D+00.
     45 vectors produced by pass  2 Test12= 1.72D-14 2.08D-09 XBig12= 6.87D+00 6.85D-01.
     45 vectors produced by pass  3 Test12= 1.72D-14 2.08D-09 XBig12= 6.05D-02 5.37D-02.
     45 vectors produced by pass  4 Test12= 1.72D-14 2.08D-09 XBig12= 2.17D-04 2.52D-03.
     45 vectors produced by pass  5 Test12= 1.72D-14 2.08D-09 XBig12= 1.05D-06 2.17D-04.
     36 vectors produced by pass  6 Test12= 1.72D-14 2.08D-09 XBig12= 6.43D-09 1.17D-05.
     20 vectors produced by pass  7 Test12= 1.72D-14 2.08D-09 XBig12= 4.62D-11 1.14D-06.
      4 vectors produced by pass  8 Test12= 1.72D-14 2.08D-09 XBig12= 3.05D-13 8.33D-08.
      1 vectors produced by pass  9 Test12= 1.72D-14 2.08D-09 XBig12= 2.46D-15 7.30D-09.
 InvSVY:  IOpt=1 It=  1 EMax= 1.07D-14
 Solved reduced A of dimension   331 with    48 vectors.
 Tx.T = -1.74D-03 for pert.     1
 Tx.T =  2.45D-05 for pert.    16
 Tx.T =  2.06D-05 for pert.    13
 Tx.T = -1.73D-05 for pert.     3
 Tx.T =  1.52D-05 for pert.     8
 Tx.T = -1.37D-05 for pert.    11
 Tx.T = -1.25D-05 for pert.    10
 Tx.T = -1.06D-05 for pert.     7
 Tx.T = -8.60D-06 for pert.    25
 Tx.T =  7.08D-06 for pert.    18
 SavDET:  read IOETrn=   770 NScale= 10 NData=  16 NLR=1 NState=    3 NDeriv=    0 LETran=      64.
 SavDET: write IOETrn=   770 NScale= 10 NData=  16 NLR=1 NState=    3 NDeriv=   48 LETran=     832.
 TDDxLx will form    48 C1x/S1x matrices at one time.
 Interchange theorem applied.
 FoFJK:  IHMeth= 1 ICntrl=    5100 DoSepK=F KAlg= 0 I1Cent=           0 FoldK=F
 IRaf=         0 NMat=       1 IRICut=       1 DoRegI=T DoRafI=F ISym2E= 0 IDoP0=0 IntGTp=1.
 D1PCM: PCM CHGder 1st derivatives, ID1Alg=3 FixD1E=F DoIter=F DoCFld=F I1PDM=6.

 **********************************************************************

            Population analysis using the SCF Density.

 **********************************************************************

 Alpha  occ. eigenvalues --  -19.72167 -19.59932 -19.59847 -14.92623 -10.66522
 Alpha  occ. eigenvalues --  -10.64693 -10.59951 -10.59907 -10.58514 -10.58308
 Alpha  occ. eigenvalues --   -1.30911  -1.25157  -1.12856  -1.02119  -0.92351
 Alpha  occ. eigenvalues --   -0.89552  -0.80434  -0.75840  -0.70741  -0.67345
 Alpha  occ. eigenvalues --   -0.62550  -0.60456  -0.59973  -0.56285  -0.55979
 Alpha  occ. eigenvalues --   -0.55834  -0.53718  -0.52165  -0.49681  -0.46895
 Alpha  occ. eigenvalues --   -0.45281  -0.38092  -0.36287  -0.35975  -0.35892
 Alpha  occ. eigenvalues --   -0.34272  -0.18584
 Alpha virt. eigenvalues --   -0.02218   0.00603   0.06235   0.08162   0.10986
 Alpha virt. eigenvalues --    0.14214   0.16115   0.16292   0.19813   0.21801
 Alpha virt. eigenvalues --    0.24774   0.28234   0.31474   0.31672   0.34180
 Alpha virt. eigenvalues --    0.38399   0.38467   0.39508   0.40670   0.41192
 Alpha virt. eigenvalues --    0.41529   0.43678   0.45408   0.45580   0.45623
 Alpha virt. eigenvalues --    0.50328   0.51505   0.52694   0.53229   0.54265
 Alpha virt. eigenvalues --    0.59750   0.62853   0.63632   0.63828   0.63926
 Alpha virt. eigenvalues --    0.66180   0.69082   0.70980   0.70985   0.74499
 Alpha virt. eigenvalues --    0.77536   0.79852   0.81315   0.82371   0.83727
 Alpha virt. eigenvalues --    0.84602   0.87274   0.87439   0.88241   0.90023
 Alpha virt. eigenvalues --    0.91043   0.94369   0.95517   1.00173   1.01559
 Alpha virt. eigenvalues --    1.03847   1.08416   1.09395   1.10995   1.19948
 Alpha virt. eigenvalues --    1.20159   1.20626   1.20690   1.22344   1.24480
 Alpha virt. eigenvalues --    1.24610   1.35195   1.43301   1.43850   1.44600
 Alpha virt. eigenvalues --    1.55600   1.56931   1.61891   1.64591   1.67045
 Alpha virt. eigenvalues --    1.70368   1.74317   1.74749   1.77576   1.77625
 Alpha virt. eigenvalues --    1.79460   1.86405   1.89676   1.90619   1.92190
 Alpha virt. eigenvalues --    1.94703   1.98132   2.04247   2.12513   2.16762
 Alpha virt. eigenvalues --    2.19051   2.23096   2.25885   2.29041   2.31184
 Alpha virt. eigenvalues --    2.32374   2.35687   2.44906   2.52944   2.56819
 Alpha virt. eigenvalues --    2.59956   2.65122   2.65365   2.67261   2.79326
 Alpha virt. eigenvalues --    2.80550   2.80815   2.87793   2.91721   2.92804
 Alpha virt. eigenvalues --    2.96061   2.96558   3.01545   3.03161   3.14377
 Alpha virt. eigenvalues --    3.14879   3.17645   3.19215   3.24821   3.26696
 Alpha virt. eigenvalues --    3.28866   3.30950   3.35489   3.37179   3.41574
 Alpha virt. eigenvalues --    3.44859   3.45442   3.53838   3.56514   3.69132
 Alpha virt. eigenvalues --    3.70118   3.80612   3.83262   3.83547   3.92697
 Alpha virt. eigenvalues --    4.01620   4.54424   4.66692   4.74487   4.85214
 Alpha virt. eigenvalues --    4.97189   4.98931   5.07252   5.10655   5.12115
 Alpha virt. eigenvalues --    5.53559   5.66992   6.11699  23.25898  23.84077
 Alpha virt. eigenvalues --   23.84148  24.02662  24.06776  24.14558  35.49615
 Alpha virt. eigenvalues --   49.93014  49.97916  50.09979
  Beta  occ. eigenvalues --  -19.71610 -19.59421 -19.59341 -14.92256 -10.66269
  Beta  occ. eigenvalues --  -10.64470 -10.59914 -10.59895 -10.58455 -10.58279
  Beta  occ. eigenvalues --   -1.29387  -1.23483  -1.11246  -1.00917  -0.90327
  Beta  occ. eigenvalues --   -0.89121  -0.78831  -0.75070  -0.69710  -0.66638
  Beta  occ. eigenvalues --   -0.61359  -0.59447  -0.55576  -0.55440  -0.54727
  Beta  occ. eigenvalues --   -0.53327  -0.51547  -0.51372  -0.49065  -0.44826
  Beta  occ. eigenvalues --   -0.41687  -0.35358  -0.34858  -0.33476  -0.31243
  Beta virt. eigenvalues --   -0.18080  -0.00917  -0.00156   0.06411   0.07768
  Beta virt. eigenvalues --    0.08404   0.11028   0.14404   0.16228   0.19411
  Beta virt. eigenvalues --    0.21161   0.22833   0.25283   0.29132   0.32155
  Beta virt. eigenvalues --    0.32483   0.34916   0.38586   0.38726   0.40371
  Beta virt. eigenvalues --    0.41271   0.41803   0.42198   0.44534   0.45451
  Beta virt. eigenvalues --    0.45879   0.46104   0.50912   0.52218   0.53268
  Beta virt. eigenvalues --    0.53577   0.54599   0.60527   0.63269   0.63680
  Beta virt. eigenvalues --    0.64297   0.64343   0.66648   0.69477   0.71881
  Beta virt. eigenvalues --    0.72030   0.75069   0.78165   0.80443   0.82227
  Beta virt. eigenvalues --    0.83030   0.84292   0.86635   0.87470   0.87743
  Beta virt. eigenvalues --    0.88564   0.91277   0.92155   0.95793   0.96414
  Beta virt. eigenvalues --    1.01769   1.02250   1.03951   1.09409   1.09687
  Beta virt. eigenvalues --    1.11264   1.20710   1.20872   1.22378   1.22508
  Beta virt. eigenvalues --    1.22853   1.24599   1.26116   1.35439   1.44247
  Beta virt. eigenvalues --    1.44651   1.45315   1.56489   1.57540   1.62812
  Beta virt. eigenvalues --    1.65282   1.68542   1.70858   1.75588   1.76067
  Beta virt. eigenvalues --    1.78932   1.79261   1.80131   1.87906   1.90963
  Beta virt. eigenvalues --    1.92518   1.93032   1.96093   1.99092   2.05094
  Beta virt. eigenvalues --    2.14244   2.18188   2.21000   2.23796   2.26978
  Beta virt. eigenvalues --    2.30657   2.31480   2.33168   2.37292   2.46004
  Beta virt. eigenvalues --    2.55887   2.57978   2.60974   2.66338   2.68587
  Beta virt. eigenvalues --    2.69117   2.80882   2.81548   2.84024   2.89322
  Beta virt. eigenvalues --    2.93329   2.94673   2.97335   2.97835   3.02765
  Beta virt. eigenvalues --    3.05594   3.15131   3.16575   3.18635   3.21113
  Beta virt. eigenvalues --    3.25355   3.27426   3.29319   3.31263   3.36184
  Beta virt. eigenvalues --    3.38019   3.42382   3.45641   3.46714   3.54667
  Beta virt. eigenvalues --    3.57594   3.69779   3.70742   3.81402   3.84260
  Beta virt. eigenvalues --    3.85972   3.94444   4.03037   4.55000   4.68369
  Beta virt. eigenvalues --    4.77046   4.87715   4.99371   5.01071   5.07877
  Beta virt. eigenvalues --    5.11232   5.12711   5.53987   5.67619   6.11768
  Beta virt. eigenvalues --   23.26049  23.84457  23.84725  24.03493  24.07083
  Beta virt. eigenvalues --   24.15163  35.49144  49.92531  49.97398  50.09456
          Condensed to atoms (all electrons):
               1          2          3          4          5          6
     1  O    8.036294   0.000000   0.000000  -0.000000  -0.000863   0.003973
     2  O    0.000000   8.393811  -0.109051   0.261317  -0.166978   0.034726
     3  O    0.000000  -0.109051   8.392322   0.261078  -0.168354   0.010217
     4  N   -0.000000   0.261317   0.261078   6.240133   0.280821  -0.056049
     5  C   -0.000863  -0.166978  -0.168354   0.280821   5.315849   0.323532
     6  C    0.003973   0.034726   0.010217  -0.056049   0.323532   5.177224
     7  C    0.008372   0.010317   0.035556  -0.057987   0.302417  -0.066056
     8  C    0.319000   0.000017   0.000049  -0.000201  -0.038086  -0.055117
     9  C   -0.046421   0.001699  -0.000123   0.004490  -0.039152   0.530177
    10  C   -0.070331  -0.000136   0.001596   0.004765  -0.029189  -0.016799
    11  H   -0.000079   0.023585   0.000814  -0.007510  -0.044552   0.381460
    12  H   -0.000053   0.000834   0.024318  -0.007673  -0.042464   0.005165
    13  H    0.000810  -0.000047   0.000002  -0.000054   0.005029  -0.025174
    14  H   -0.004517   0.000001  -0.000072  -0.000065   0.004914  -0.000372
    15  H    0.272605   0.000000   0.000000  -0.000001  -0.000040  -0.000288
               7          8          9         10         11         12
     1  O    0.008372   0.319000  -0.046421  -0.070331  -0.000079  -0.000053
     2  O    0.010317   0.000017   0.001699  -0.000136   0.023585   0.000834
     3  O    0.035556   0.000049  -0.000123   0.001596   0.000814   0.024318
     4  N   -0.057987  -0.000201   0.004490   0.004765  -0.007510  -0.007673
     5  C    0.302417  -0.038086  -0.039152  -0.029189  -0.044552  -0.042464
     6  C   -0.066056  -0.055117   0.530177  -0.016799   0.381460   0.005165
     7  C    5.259404  -0.026398  -0.014719   0.433799   0.005387   0.375934
     8  C   -0.026398   4.852096   0.433929   0.354205   0.006036   0.004554
     9  C   -0.014719   0.433929   5.049710  -0.100894  -0.027057  -0.001098
    10  C    0.433799   0.354205  -0.100894   5.263570  -0.001331  -0.021691
    11  H    0.005387   0.006036  -0.027057  -0.001331   0.383701  -0.000209
    12  H    0.375934   0.004554  -0.001098  -0.021691  -0.000209   0.380338
    13  H   -0.001599  -0.038659   0.378999   0.007494  -0.005402   0.000037
    14  H   -0.018503  -0.040432   0.003483   0.380806   0.000032  -0.004735
    15  H    0.001017  -0.054925   0.005708   0.005613   0.000016  -0.000002
              13         14         15
     1  O    0.000810  -0.004517   0.272605
     2  O   -0.000047   0.000001   0.000000
     3  O    0.000002  -0.000072   0.000000
     4  N   -0.000054  -0.000065  -0.000001
     5  C    0.005029   0.004914  -0.000040
     6  C   -0.025174  -0.000372  -0.000288
     7  C   -0.001599  -0.018503   0.001017
     8  C   -0.038659  -0.040432  -0.054925
     9  C    0.378999   0.003483   0.005708
    10  C    0.007494   0.380806   0.005613
    11  H   -0.005402   0.000032   0.000016
    12  H    0.000037  -0.004735  -0.000002
    13  H    0.382463  -0.000156  -0.000380
    14  H   -0.000156   0.375891   0.002106
    15  H   -0.000380   0.002106   0.295668
          Atomic-Atomic Spin Densities.
               1          2          3          4          5          6
     1  O    0.311250   0.000000   0.000000  -0.000000   0.000093   0.000547
     2  O    0.000000   0.320357   0.016369  -0.104906  -0.017938   0.005258
     3  O    0.000000   0.016369   0.322993  -0.104638  -0.018220   0.000857
     4  N   -0.000000  -0.104906  -0.104638   0.371309   0.073232  -0.016544
     5  C    0.000093  -0.017938  -0.018220   0.073232   0.519610  -0.039903
     6  C    0.000547   0.005258   0.000857  -0.016544  -0.039903   0.126009
     7  C    0.000455   0.000895   0.005411  -0.017695  -0.035640   0.018581
     8  C   -0.100731  -0.000011  -0.000012   0.000240  -0.000847  -0.020601
     9  C   -0.005556   0.000016   0.000006  -0.000031  -0.013398  -0.005097
    10  C   -0.002661   0.000003   0.000012   0.000017  -0.011894  -0.001484
    11  H   -0.000000  -0.000652  -0.000025   0.000213  -0.000842   0.000468
    12  H    0.000000  -0.000025  -0.000672   0.000216  -0.000851  -0.000037
    13  H    0.000063   0.000001  -0.000000   0.000004   0.000014  -0.000344
    14  H    0.000123  -0.000000   0.000001   0.000004  -0.000003   0.000018
    15  H   -0.002868   0.000000  -0.000000   0.000000   0.000006   0.000002
               7          8          9         10         11         12
     1  O    0.000455  -0.100731  -0.005556  -0.002661  -0.000000   0.000000
     2  O    0.000895  -0.000011   0.000016   0.000003  -0.000652  -0.000025
     3  O    0.005411  -0.000012   0.000006   0.000012  -0.000025  -0.000672
     4  N   -0.017695   0.000240  -0.000031   0.000017   0.000213   0.000216
     5  C   -0.035640  -0.000847  -0.013398  -0.011894  -0.000842  -0.000851
     6  C    0.018581  -0.020601  -0.005097  -0.001484   0.000468  -0.000037
     7  C    0.182985  -0.021877  -0.001685  -0.010024  -0.000021   0.000103
     8  C   -0.021877   0.477237   0.037377   0.035407  -0.000020  -0.000016
     9  C   -0.001685   0.037377   0.086079   0.004177  -0.000458   0.000022
    10  C   -0.010024   0.035407   0.004177   0.031582   0.000021  -0.000396
    11  H   -0.000021  -0.000020  -0.000458   0.000021  -0.006058   0.000005
    12  H    0.000103  -0.000016   0.000022  -0.000396   0.000005  -0.007832
    13  H    0.000024  -0.000531  -0.000699  -0.000070   0.000051  -0.000001
    14  H   -0.000428  -0.000523  -0.000019  -0.000240  -0.000001   0.000072
    15  H   -0.000030   0.000944  -0.000175   0.000041  -0.000000  -0.000002
              13         14         15
     1  O    0.000063   0.000123  -0.002868
     2  O    0.000001  -0.000000   0.000000
     3  O   -0.000000   0.000001  -0.000000
     4  N    0.000004   0.000004   0.000000
     5  C    0.000014  -0.000003   0.000006
     6  C   -0.000344   0.000018   0.000002
     7  C    0.000024  -0.000428  -0.000030
     8  C   -0.000531  -0.000523   0.000944
     9  C   -0.000699  -0.000019  -0.000175
    10  C   -0.000070  -0.000240   0.000041
    11  H    0.000051  -0.000001  -0.000000
    12  H   -0.000001   0.000072  -0.000002
    13  H   -0.005538  -0.000002   0.000006
    14  H   -0.000002  -0.004008   0.000059
    15  H    0.000006   0.000059  -0.006153
 Mulliken charges and spin densities:
               1          2
     1  O   -0.518789   0.200715
     2  O   -0.450095   0.219367
     3  O   -0.448351   0.222084
     4  N    0.076935   0.201421
     5  C    0.297117   0.453418
     6  C   -0.246620   0.067730
     7  C   -0.246940   0.121054
     8  C    0.283934   0.406034
     9  C   -0.178729   0.100558
    10  C   -0.211476   0.044491
    11  H    0.285107  -0.007320
    12  H    0.286744  -0.009413
    13  H    0.296640  -0.007023
    14  H    0.301618  -0.004946
    15  H    0.472903  -0.008170
 Sum of Mulliken charges =  -0.00000   2.00000
 Mulliken charges and spin densities with hydrogens summed into heavy atoms:
               1          2
     1  O   -0.045885   0.192545
     2  O   -0.450095   0.219367
     3  O   -0.448351   0.222084
     4  N    0.076935   0.201421
     5  C    0.297117   0.453418
     6  C    0.038487   0.060410
     7  C    0.039805   0.111641
     8  C    0.283934   0.406034
     9  C    0.117911   0.093535
    10  C    0.090142   0.039544
 APT charges:
               1
     1  O   -0.775995
     2  O   -0.343153
     3  O   -0.146503
     4  N   -0.750378
     5  C    0.548348
     6  C   -0.556465
     7  C   -0.455816
     8  C    0.194054
     9  C    0.765210
    10  C    0.584758
    11  H    0.147194
    12  H    0.143517
    13  H    0.125466
    14  H    0.109139
    15  H    0.410623
 Sum of APT charges =  -0.00000
 APT charges with hydrogens summed into heavy atoms:
               1
     1  O   -0.365371
     2  O   -0.343153
     3  O   -0.146503
     4  N   -0.750378
     5  C    0.548348
     6  C   -0.409271
     7  C   -0.312299
     8  C    0.194054
     9  C    0.890676
    10  C    0.693898
 Electronic spatial extent (au):  <R**2>=           1937.0902
 Charge=             -0.0000 electrons
 Dipole moment (field-independent basis, Debye):
    X=             13.9963    Y=             -2.2833    Z=              0.1024  Tot=             14.1817
 Quadrupole moment (field-independent basis, Debye-Ang):
   XX=           -102.0039   YY=            -50.7119   ZZ=            -58.2262
   XY=             -3.7989   XZ=             -0.6695   YZ=              0.0514
 Traceless Quadrupole moment (field-independent basis, Debye-Ang):
   XX=            -31.6899   YY=             19.6021   ZZ=             12.0878
   XY=             -3.7989   XZ=             -0.6695   YZ=              0.0514
 Octapole moment (field-independent basis, Debye-Ang**2):
  XXX=            439.0620  YYY=            -10.0943  ZZZ=              1.7112  XYY=             93.7688
  XXY=            -22.4762  XXZ=              2.7638  XZZ=             66.1578  YZZ=             -2.2116
  YYZ=              0.8715  XYZ=             -0.0060
 Hexadecapole moment (field-independent basis, Debye-Ang**3):
 XXXX=          -2817.5983 YYYY=           -339.6094 ZZZZ=            -56.5897 XXXY=              5.3337
 XXXZ=            -20.0353 YYYX=             26.3552 YYYZ=              0.2712 ZZZX=             -8.5900
 ZZZY=              0.1221 XXYY=           -449.2455 XXZZ=           -324.0341 YYZZ=            -81.3961
 XXYZ=              0.5192 YYXZ=             -3.7961 ZZXY=              7.2172
 N-N= 4.931831877353D+02 E-N=-2.184613579310D+03  KE= 5.103315060064D+02
  Exact polarizability:     299.487      -2.585     172.316       2.765       0.102      40.155
 Approx polarizability:     209.189      -2.026     115.761       1.568       0.057      44.979
                          Isotropic Fermi Contact Couplings
        Atom                 a.u.       MegaHertz       Gauss      10(-4) cm-1
     1  O(17)              0.00858      -2.60021      -0.92782      -0.86734
     2  O(17)              0.07150     -21.67187      -7.73306      -7.22896
     3  O(17)              0.06960     -21.09427      -7.52696      -7.03629
     4  N(14)              0.06628      10.70705       3.82054       3.57149
     5  C(13)             -0.08831     -49.63694     -17.71169     -16.55710
     6  C(13)              0.02674      15.02978       5.36300       5.01339
     7  C(13)              0.03189      17.92325       6.39546       5.97855
     8  C(13)             -0.01425      -8.00881      -2.85774      -2.67145
     9  C(13)              0.02321      13.04401       4.65443       4.35101
    10  C(13)              0.01297       7.28978       2.60117       2.43161
    11  H(1)              -0.00543     -12.12759      -4.32743      -4.04533
    12  H(1)              -0.00582     -13.01566      -4.64431      -4.34156
    13  H(1)              -0.00499     -11.15285      -3.97961      -3.72019
    14  H(1)              -0.00423      -9.46066      -3.37580      -3.15574
    15  H(1)              -0.00102      -2.28818      -0.81648      -0.76325
 --------------------------------------------------------
       Center         ----  Spin Dipole Couplings  ----
                      3XX-RR        3YY-RR        3ZZ-RR
 --------------------------------------------------------
     1   Atom       -0.137497     -0.126954      0.264451
     2   Atom       -0.728309     -0.778348      1.506657
     3   Atom       -0.712230     -0.758769      1.470999
     4   Atom       -0.444956     -0.457272      0.902228
     5   Atom        0.078446      0.056328     -0.134773
     6   Atom       -0.153491     -0.179483      0.332974
     7   Atom       -0.170087     -0.193389      0.363475
     8   Atom       -0.049138     -0.057047      0.106185
     9   Atom       -0.148966     -0.160536      0.309502
    10   Atom       -0.122192     -0.134367      0.256559
    11   Atom        0.000500      0.012649     -0.013149
    12   Atom        0.000889      0.012027     -0.012915
    13   Atom       -0.000629      0.010495     -0.009866
    14   Atom       -0.002310      0.011997     -0.009688
    15   Atom        0.003181      0.004666     -0.007847
 --------------------------------------------------------
                        XY            XZ            YZ
 --------------------------------------------------------
     1   Atom       -0.008034      0.000096     -0.006479
     2   Atom        0.015469     -0.038951     -0.001131
     3   Atom       -0.017177     -0.035346      0.003621
     4   Atom       -0.000948     -0.020341      0.000863
     5   Atom       -0.000900      0.002989     -0.000029
     6   Atom       -0.001472     -0.004800     -0.000733
     7   Atom       -0.000208     -0.004110      0.000292
     8   Atom       -0.000667     -0.000243     -0.000643
     9   Atom       -0.001236     -0.003774     -0.000804
    10   Atom        0.000322     -0.003225      0.000689
    11   Atom       -0.019711      0.000129     -0.000124
    12   Atom        0.021333      0.000147      0.000115
    13   Atom        0.024767      0.000127      0.000238
    14   Atom       -0.021450      0.000098     -0.000210
    15   Atom       -0.007565     -0.000135      0.000214
 --------------------------------------------------------


 ---------------------------------------------------------------------------------
              Anisotropic Spin Dipole Couplings in Principal Axis System
 ---------------------------------------------------------------------------------

       Atom             a.u.   MegaHertz   Gauss  10(-4) cm-1        Axes

              Baa    -0.1419    10.265     3.663     3.424  0.8789  0.4770  0.0074
     1 O(17)  Bbb    -0.1227     8.879     3.168     2.962 -0.4771  0.8787  0.0148
              Bcc     0.2646   -19.143    -6.831    -6.385  0.0006 -0.0166  0.9999
 
              Baa    -0.7828    56.642    20.211    18.894 -0.2760  0.9612 -0.0042
     2 O(17)  Bbb    -0.7246    52.428    18.708    17.488  0.9610  0.2760  0.0169
              Bcc     1.5073  -109.070   -38.919   -36.382 -0.0174 -0.0006  0.9998
 
              Baa    -0.7644    55.315    19.738    18.451  0.3146  0.9492  0.0034
     3 O(17)  Bbb    -0.7071    51.167    18.258    17.068  0.9491 -0.3146  0.0159
              Bcc     1.4716  -106.482   -37.996   -35.519 -0.0162  0.0017  0.9999
 
              Baa    -0.4573   -17.639    -6.294    -5.884  0.0771  0.9970  0.0005
     4 N(14)  Bbb    -0.4452   -17.170    -6.127    -5.727  0.9969 -0.0771  0.0151
              Bcc     0.9025    34.809    12.421    11.611 -0.0151  0.0006  0.9999
 
              Baa    -0.1348   -18.091    -6.455    -6.034 -0.0140  0.0001  0.9999
     5 C(13)  Bbb     0.0563     7.554     2.695     2.520  0.0405  0.9992  0.0005
              Bcc     0.0785    10.537     3.760     3.515  0.9991 -0.0405  0.0140
 
              Baa    -0.1796   -24.096    -8.598    -8.038  0.0567  0.9984  0.0020
     6 C(13)  Bbb    -0.1535   -20.592    -7.348    -6.869  0.9983 -0.0568  0.0098
              Bcc     0.3330    44.688    15.946    14.906 -0.0099 -0.0014  1.0000
 
              Baa    -0.1934   -25.951    -9.260    -8.656  0.0088  1.0000 -0.0005
     7 C(13)  Bbb    -0.1701   -22.828    -8.146    -7.615  0.9999 -0.0088  0.0077
              Bcc     0.3635    48.779    17.406    16.271 -0.0077  0.0005  1.0000
 
              Baa    -0.0571    -7.663    -2.734    -2.556  0.0835  0.9965  0.0040
     8 C(13)  Bbb    -0.0491    -6.586    -2.350    -2.197  0.9965 -0.0835  0.0012
              Bcc     0.1062    14.249     5.085     4.753 -0.0015 -0.0039  1.0000
 
              Baa    -0.1607   -21.560    -7.693    -7.192  0.1059  0.9944  0.0026
     9 C(13)  Bbb    -0.1489   -19.976    -7.128    -6.663  0.9943 -0.1059  0.0080
              Bcc     0.3095    41.537    14.821    13.855 -0.0082 -0.0017  1.0000
 
              Baa    -0.1344   -18.032    -6.434    -6.015 -0.0269  0.9996 -0.0020
    10 C(13)  Bbb    -0.1222   -16.400    -5.852    -5.470  0.9996  0.0269  0.0085
              Bcc     0.2566    34.432    12.286    11.485 -0.0085  0.0018  1.0000
 
              Baa    -0.0141    -7.497    -2.675    -2.501  0.8042  0.5935 -0.0338
    11 H(1)   Bbb    -0.0131    -7.016    -2.503    -2.340  0.0246  0.0236  0.9994
              Bcc     0.0272    14.513     5.179     4.841 -0.5939  0.8045 -0.0044
 
              Baa    -0.0156    -8.319    -2.968    -2.775  0.7913 -0.6112 -0.0171
    12 H(1)   Bbb    -0.0129    -6.891    -2.459    -2.299  0.0109 -0.0139  0.9998
              Bcc     0.0285    15.210     5.427     5.073  0.6113  0.7914  0.0044
 
              Baa    -0.0205   -10.912    -3.894    -3.640  0.7807 -0.6249  0.0047
    13 H(1)   Bbb    -0.0099    -5.265    -1.879    -1.756 -0.0078 -0.0022  1.0000
              Bcc     0.0303    16.176     5.772     5.396  0.6248  0.7807  0.0066
 
              Baa    -0.0178    -9.480    -3.383    -3.162  0.8113  0.5847  0.0054
    14 H(1)   Bbb    -0.0097    -5.169    -1.845    -1.724 -0.0079  0.0018  1.0000
              Bcc     0.0275    14.650     5.227     4.887 -0.5846  0.8113 -0.0061
 
              Baa    -0.0079    -4.189    -1.495    -1.397  0.0009 -0.0166  0.9999
    15 H(1)   Bbb    -0.0037    -1.962    -0.700    -0.655  0.7409  0.6715  0.0105
              Bcc     0.0115     6.151     2.195     2.052 -0.6716  0.7408  0.0129
 

 ---------------------------------------------------------------------------------

 D2PCM: PCM CHGder 2nd derivatives, FixD1E=F FixD2E=F DoIter=F DoCFld=F I1PDM=6
 D1PCM: PCM CHGder 1st derivatives, ID1Alg=3 FixD1E=F DoIter=F DoCFld=F I1PDM=6.
 Calling FoFJK, ICntrl=  10105127 FMM=F ISym2X=0 I1Cent= 0 IOpClX= 1 NMat=1 NMatS=1 NMatT=0.
 Calling FoFJK, ICntrl=  10002127 FMM=F ISym2X=0 I1Cent= 0 IOpClX= 1 NMat=1 NMatS=1 NMatT=0.
 -------------------------------------------------------------------
 Center     Atomic                   Forces (Hartrees/Bohr)
 Number     Number              X              Y              Z
 -------------------------------------------------------------------
      1        8          -0.006162341   -0.007062932   -0.000245466
      2        8          -0.024048997    0.043399522   -0.000334080
      3        8          -0.026469445   -0.041637610   -0.000340745
      4        7           0.105842261   -0.003624278    0.001460690
      5        6          -0.053379538    0.003060523   -0.000693655
      6        6          -0.033413384   -0.002240662   -0.000240343
      7        6          -0.031393405    0.001660426   -0.000337253
      8        6           0.023886055   -0.006301257   -0.000178449
      9        6           0.025674924   -0.003680655    0.000214172
     10        6           0.020779946    0.008894838    0.000319882
     11        1          -0.001491045   -0.006418862   -0.000007491
     12        1          -0.000978715    0.006692373    0.000005426
     13        1          -0.000142161   -0.003677764   -0.000001547
     14        1           0.000493006    0.002329738   -0.000032482
     15        1           0.000802838    0.008606602    0.000411341
 -------------------------------------------------------------------
 Cartesian Forces:  Max     0.105842261 RMS     0.022680754
 -------------------------------------------------------------------
 Center     Atomic                Nonadiabatic Coup. (Bohr^-1)
 Number     Number              X              Y              Z
 -------------------------------------------------------------------
      1        8           0.039691005    0.228047196   -0.000963389
      2        8          -0.116931139   -0.153463995   -0.000597630
      3        8           0.108027900   -0.130420467    0.001173708
      4        7           0.018134536    0.524338387   -0.000843449
      5        6           0.064572852    1.331527408    0.001101350
      6        6          -0.850321106   -0.655156105   -0.010250641
      7        6           0.566787529   -0.585303532    0.005602337
      8        6          -0.067834145   -1.742435072    0.002261482
      9        6          -0.237987296    0.553287546   -0.002455159
     10        6           0.507482034    0.608615573    0.003273786
     11        1           0.009289548   -0.008256649    0.000521133
     12        1          -0.010060198   -0.009431682    0.001291674
     13        1           0.000542600    0.018639436    0.000978072
     14        1           0.007060263    0.020296658   -0.001040381
     15        1          -0.040421867   -0.001880246   -0.000037453
 -------------------------------------------------------------------
 Cartesian Nonad. Coup.:  Max     1.742435072 RMS     0.422225290
 FormGI is forming the generalized inverse of G from B-inverse, IUseBI=4.

 GradGradGradGradGradGradGradGradGradGradGradGradGradGradGradGradGradGrad
 Berny optimization.
 Internal  Forces:  Max     0.055358542 RMS     0.012849197
 Search for a local minimum.
 Step number   1 out of a maximum of  100
 All quantities printed in internal units (Hartrees-Bohrs-Radians)
 Mixed Optimization -- RFO/linear search
 Second derivative matrix not updated -- analytic derivatives used.
 ITU=  0
     Eigenvalues ---   -0.34774   0.00404   0.00537   0.00863   0.01038
     Eigenvalues ---    0.01277   0.01312   0.02109   0.02203   0.02459
     Eigenvalues ---    0.02621   0.02783   0.03286   0.09834   0.10658
     Eigenvalues ---    0.11121   0.12277   0.15094   0.16706   0.17642
     Eigenvalues ---    0.18076   0.19195   0.20139   0.22737   0.24131
     Eigenvalues ---    0.28018   0.31880   0.35265   0.36407   0.36507
     Eigenvalues ---    0.36583   0.37018   0.40256   0.40391   0.45959
     Eigenvalues ---    0.48348   0.50610   0.57757   0.60225
 RFO step:  Lambda=-3.58200694D-01 EMin=-3.47743594D-01
 Linear search not attempted -- first point.
 Maximum step size (   0.300) exceeded in Quadratic search.
    -- Step size scaled by   0.395
 Iteration  1 RMS(Cart)=  0.03602950 RMS(Int)=  0.00049490
 Iteration  2 RMS(Cart)=  0.00070334 RMS(Int)=  0.00002192
 Iteration  3 RMS(Cart)=  0.00000058 RMS(Int)=  0.00002191
 Variable       Old X    -DE/DX   Delta X   Delta X   Delta X     New X
                                 (Linear)    (Quad)   (Total)
    R1        2.57543  -0.00534   0.00000  -0.03638  -0.03638   2.53905
    R2        1.83680  -0.00785   0.00000  -0.00097  -0.00097   1.83583
    R3        2.34206   0.04956   0.00000   0.18345   0.18345   2.52551
    R4        2.34205   0.04927   0.00000   0.18422   0.18422   2.52627
    R5        2.77498  -0.05536   0.00000  -0.08212  -0.08212   2.69286
    R6        2.64811  -0.01108   0.00000  -0.03787  -0.03783   2.61028
    R7        2.65182  -0.00981   0.00000  -0.06983  -0.06980   2.58203
    R8        2.63764   0.03353   0.00000  -0.03488  -0.03487   2.60278
    R9        2.05571  -0.00502   0.00000  -0.00230  -0.00230   2.05341
   R10        2.64099   0.03183   0.00000  -0.03131  -0.03131   2.60968
   R11        2.05648  -0.00527   0.00000  -0.00179  -0.00179   2.05469
   R12        2.63065   0.00023   0.00000  -0.03956  -0.03960   2.59105
   R13        2.63256  -0.00203   0.00000  -0.01791  -0.01795   2.61461
   R14        2.05475  -0.00319   0.00000  -0.00210  -0.00210   2.05265
   R15        2.05290  -0.00183   0.00000  -0.00144  -0.00144   2.05146
    A1        1.90472   0.00674   0.00000   0.00776   0.00776   1.91249
    A2        2.17314  -0.00401   0.00000  -0.04406  -0.04406   2.12907
    A3        2.05607   0.00142   0.00000   0.01895   0.01895   2.07502
    A4        2.05398   0.00259   0.00000   0.02511   0.02511   2.07909
    A5        2.08877   0.00166   0.00000  -0.00475  -0.00479   2.08398
    A6        2.08920   0.00156   0.00000  -0.00715  -0.00719   2.08201
    A7        2.10521  -0.00322   0.00000   0.01190   0.01198   2.11719
    A8        2.08292   0.00259   0.00000   0.00184   0.00189   2.08481
    A9        2.12063  -0.00569   0.00000  -0.00727  -0.00729   2.11334
   A10        2.07964   0.00310   0.00000   0.00542   0.00540   2.08504
   A11        2.08721   0.00229   0.00000   0.00078   0.00081   2.08802
   A12        2.11609  -0.00550   0.00000  -0.00577  -0.00578   2.11031
   A13        2.07989   0.00321   0.00000   0.00499   0.00497   2.08486
   A14        2.05045   0.00100   0.00000   0.00026   0.00030   2.05075
   A15        2.11890   0.01190   0.00000  -0.00853  -0.00849   2.11041
   A16        2.11383  -0.01290   0.00000   0.00827   0.00819   2.12203
   A17        2.09209   0.00500   0.00000  -0.01230  -0.01233   2.07976
   A18        2.09844  -0.00063   0.00000   0.00954   0.00955   2.10799
   A19        2.09265  -0.00437   0.00000   0.00276   0.00278   2.09543
   A20        2.08511   0.00624   0.00000  -0.01050  -0.01055   2.07456
   A21        2.08299  -0.00154   0.00000   0.00879   0.00881   2.09180
   A22        2.11509  -0.00470   0.00000   0.00171   0.00173   2.11682
    D1       -3.11381  -0.00020   0.00000  -0.00099  -0.00099  -3.11480
    D2        0.02590  -0.00008   0.00000  -0.00067  -0.00067   0.02523
    D3        0.00098  -0.00004   0.00000   0.00052   0.00052   0.00149
    D4       -3.13853  -0.00008   0.00000   0.00052   0.00052  -3.13801
    D5        3.14046   0.00005   0.00000  -0.00064  -0.00064   3.13982
    D6        0.00095   0.00002   0.00000  -0.00064  -0.00064   0.00031
    D7       -3.13625  -0.00006   0.00000  -0.00018  -0.00018  -3.13644
    D8        0.00385  -0.00002   0.00000  -0.00020  -0.00020   0.00365
    D9        0.00323  -0.00001   0.00000  -0.00020  -0.00020   0.00303
   D10       -3.13985   0.00003   0.00000  -0.00022  -0.00022  -3.14008
   D11        3.13555   0.00010   0.00000   0.00025   0.00025   3.13581
   D12       -0.00444   0.00002   0.00000   0.00015   0.00015  -0.00429
   D13       -0.00393   0.00006   0.00000   0.00027   0.00027  -0.00366
   D14        3.13926  -0.00002   0.00000   0.00017   0.00017   3.13943
   D15        0.00062  -0.00002   0.00000   0.00005   0.00005   0.00067
   D16        3.13981   0.00006   0.00000   0.00004   0.00004   3.13985
   D17       -3.13952  -0.00005   0.00000   0.00008   0.00008  -3.13943
   D18       -0.00032   0.00003   0.00000   0.00007   0.00007  -0.00026
   D19        0.00077  -0.00006   0.00000  -0.00017  -0.00017   0.00060
   D20        3.14150  -0.00007   0.00000  -0.00009  -0.00009   3.14140
   D21        3.14080   0.00001   0.00000  -0.00008  -0.00008   3.14072
   D22       -0.00166   0.00001   0.00000  -0.00000  -0.00000  -0.00167
   D23        3.13590   0.00020   0.00000   0.00037   0.00037   3.13627
   D24       -0.00330   0.00011   0.00000   0.00038   0.00038  -0.00292
   D25       -0.00381   0.00005   0.00000   0.00007   0.00007  -0.00374
   D26        3.14017  -0.00004   0.00000   0.00007   0.00007   3.14025
   D27       -3.13654  -0.00014   0.00000  -0.00031  -0.00031  -3.13685
   D28        0.00594  -0.00014   0.00000  -0.00039  -0.00039   0.00554
   D29        0.00310   0.00000   0.00000   0.00001   0.00001   0.00311
   D30       -3.13761   0.00001   0.00000  -0.00007  -0.00007  -3.13768
         Item               Value     Threshold  Converged?
 Maximum Force            0.055359     0.000450     NO 
 RMS     Force            0.012849     0.000300     NO 
 Maximum Displacement     0.147411     0.001800     NO 
 RMS     Displacement     0.035731     0.001200     NO 
 Predicted change in Energy=-3.677476D-02
 GradGradGradGradGradGradGradGradGradGradGradGradGradGradGradGradGradGrad

                          Input orientation:                          
 ---------------------------------------------------------------------
 Center     Atomic      Atomic             Coordinates (Angstroms)
 Number     Number       Type             X           Y           Z
 ---------------------------------------------------------------------
      1          8           0        2.211196    0.001207    0.014260
      2          8           0       -3.897105    1.275138   -0.041788
      3          8           0       -3.959945   -1.061977   -0.041501
      4          7           0       -3.280683    0.089391   -0.031366
      5          6           0       -1.856237    0.054109   -0.012970
      6          6           0       -1.148542    1.240314   -0.004562
      7          6           0       -1.217506   -1.153738   -0.006482
      8          6           0        0.867617   -0.005625    0.009177
      9          6           0        0.228344    1.207351    0.007034
     10          6           0        0.162779   -1.196218    0.004386
     11          1           0       -1.660212    2.198918   -0.008352
     12          1           0       -1.781001   -2.083614   -0.011156
     13          1           0        0.806341    2.127003    0.012174
     14          1           0        0.673888   -2.153942    0.009744
     15          1           0        2.541458   -0.912108   -0.009216
 ---------------------------------------------------------------------
                    Distance matrix (angstroms):
                    1          2          3          4          5
     1  O    0.000000
     2  O    6.239982   0.000000
     3  O    6.262304   2.337959   0.000000
     4  N    5.492776   1.336442   1.336843   0.000000
     5  C    4.067868   2.378420   2.381607   1.425002   0.000000
     6  C    3.581003   2.749035   3.633992   2.423090   1.381299
     7  C    3.618056   3.616757   2.744197   2.408877   1.366350
     8  C    1.343606   4.934118   4.942045   4.149586   2.724599
     9  C    2.320892   4.126294   4.763819   3.683012   2.382403
    10  C    2.372748   4.753145   4.125165   3.675800   2.374878
    11  H    4.451768   2.420367   3.990402   2.660180   2.153754
    12  H    4.503861   3.969892   2.406753   2.640342   2.139047
    13  H    2.548063   4.780271   5.734977   4.567004   3.374440
    14  H    2.647263   5.714474   4.761032   4.546742   3.358204
    15  H    0.971478   6.800014   6.503210   5.907691   4.502589
                    6          7          8          9         10
     6  C    0.000000
     7  C    2.395046   0.000000
     8  C    2.370117   2.380368   0.000000
     9  C    1.377329   2.768648   1.371126   0.000000
    10  C    2.767008   1.380982   1.383593   2.404465   0.000000
    11  H    1.086619   3.381759   3.354137   2.133092   3.853623
    12  H    3.383570   1.087298   3.366546   3.855937   2.136819
    13  H    2.146641   3.854811   2.133510   1.086217   3.384971
    14  H    3.852587   2.139636   2.157034   3.390694   1.085585
    15  H    4.271890   3.766723   1.903626   3.137335   2.395624
                   11         12         13         14         15
    11  H    0.000000
    12  H    4.284236   0.000000
    13  H    2.467687   4.942082   0.000000
    14  H    4.939204   2.455985   4.282994   0.000000
    15  H    5.228051   4.478402   3.499612   2.242839   0.000000
 Symmetry turned off by external request.
 Stoichiometry    C6H5NO3(3)
 Framework group  C1[X(C6H5NO3)]
 Deg. of freedom    39
 Full point group                 C1      NOp   1
 Rotational constants (GHZ):           3.8258917           0.8275652           0.6803993
 Standard basis: 6-311G(d) (5D, 7F)
   195 basis functions,   345 primitive gaussians,   205 cartesian basis functions
    37 alpha electrons       35 beta electrons
       nuclear repulsion energy       493.1318683204 Hartrees.
 NAtoms=   15 NActive=   15 NUniq=   15 SFac= 1.00D+00 NAtFMM=   60 NAOKFM=F Big=F
 Integral buffers will be    131072 words long.
 Regular integral format.
 Two-electron integral symmetry is turned off.
 ------------------------------------------------------------------------------
 Polarizable Continuum Model (PCM)
 =================================
 Model                : PCM.
 Atomic radii         : UFF (Universal Force Field).
 Polarization charges : Total charges.
 Charge compensation  : None.
 Solution method      : Matrix inversion.
 Cavity type          : Scaled VdW (van der Waals Surface) (Alpha=1.100).
 Cavity algorithm     : GePol (No added spheres)
                        Default sphere list used, NSphG=   15.
                        Lebedev-Laikov grids with approx.  5.0 points / Ang**2.
                        Smoothing algorithm: York/Karplus (Gamma=1.0000).
                        Polarization charges: spherical gaussians, with
                                              point-specific exponents (IZeta= 3).
                        Self-potential: point-specific (ISelfS= 7).
                        Self-field    : sphere-specific E.n sum rule (ISelfD= 2).
 1st derivatives      : Analytical E(r).r(x)/FMM algorithm (CHGder, D1EAlg=3).
                        Cavity 1st derivative terms included.
 Solvent              : Water, Eps=  78.355300 Eps(inf)=   1.777849
 ------------------------------------------------------------------------------
 Spheres list:
 ISph  on   Nord     Re0    Alpha      Xe            Ye            Ze
    1   O      1    1.7500  1.100      2.211196      0.001207      0.014260
    2   O      2    1.7500  1.100     -3.897105      1.275138     -0.041788
    3   O      3    1.7500  1.100     -3.959945     -1.061977     -0.041501
    4   N      4    1.8300  1.100     -3.280683      0.089391     -0.031366
    5   C      5    1.9255  1.100     -1.856237      0.054109     -0.012970
    6   C      6    1.9255  1.100     -1.148542      1.240314     -0.004562
    7   C      7    1.9255  1.100     -1.217506     -1.153738     -0.006482
    8   C      8    1.9255  1.100      0.867617     -0.005625      0.009177
    9   C      9    1.9255  1.100      0.228344      1.207351      0.007034
   10   C     10    1.9255  1.100      0.162779     -1.196218      0.004386
   11   H     11    1.4430  1.100     -1.660212      2.198918     -0.008352
   12   H     12    1.4430  1.100     -1.781001     -2.083614     -0.011156
   13   H     13    1.4430  1.100      0.806341      2.127003      0.012174
   14   H     14    1.4430  1.100      0.673888     -2.153942      0.009744
   15   H     15    1.4430  1.100      2.541458     -0.912108     -0.009216
 ------------------------------------------------------------------------------
 One-electron integrals computed using PRISM.
 NBasis=   195 RedAO= T EigKep=  1.93D-04  NBF=   195
 NBsUse=   195 1.00D-06 EigRej= -1.00D+00 NBFU=   195
 Initial guess from the checkpoint file:  "pNP.chk"
 B after Tr=     0.007305   -0.000320    0.000016
         Rot=    1.000000   -0.000012   -0.000011   -0.000406 Ang=  -0.05 deg.
 Initial guess <Sx>= 0.0000 <Sy>= 0.0000 <Sz>= 1.0000 <S**2>= 2.0082 S= 1.0027
 ExpMin= 1.03D-01 ExpMax= 8.59D+03 ExpMxC= 1.30D+03 IAcc=3 IRadAn=         5 AccDes= 0.00D+00
 Harris functional with IExCor= 1009 and IRadAn=       5 diagonalized for initial guess.
 HarFok:  IExCor= 1009 AccDes= 0.00D+00 IRadAn=         5 IDoV= 1 UseB2=F ITyADJ=14
 ICtDFT=  3500011 ScaDFX=  1.000000  1.000000  1.000000  1.000000
 FoFCou: FMM=F IPFlag=           0 FMFlag=      100000 FMFlg1=           0
         NFxFlg=           0 DoJE=T BraDBF=F KetDBF=T FulRan=T
         wScrn=  0.000000 ICntrl=       500 IOpCl=  0 I1Cent=   200000004 NGrid=           0
         NMat0=    1 NMatS0=      1 NMatT0=    0 NMatD0=    1 NMtDS0=    0 NMtDT0=    0
 Symmetry not used in FoFCou.
 Keep R1 and R2 ints in memory in canonical form, NReq=369583074.
 Requested convergence on RMS density matrix=1.00D-08 within 128 cycles.
 Requested convergence on MAX density matrix=1.00D-06.
 Requested convergence on             energy=1.00D-06.
 No special actions if energy rises.
 Inv3:  Mode=1 IEnd=     5880000.
 Iteration    1 A*A^-1 deviation from unit magnitude is 4.77D-15 for   1379.
 Iteration    1 A*A^-1 deviation from orthogonality  is 2.55D-15 for   1382   1308.
 Iteration    1 A^-1*A deviation from unit magnitude is 4.77D-15 for   1379.
 Iteration    1 A^-1*A deviation from orthogonality  is 1.87D-15 for    832    170.
 Error on total polarization charges =  0.00594
 SCF Done:  E(UM062X) =  -511.770343161     A.U. after   24 cycles
            NFock= 24  Conv=0.87D-08     -V/T= 2.0029
 <Sx>= 0.0000 <Sy>= 0.0000 <Sz>= 1.0000 <S**2>= 2.0106 S= 1.0035
 <L.S>=  0.00000000000    
 Annihilation of the first spin contaminant:
 S**2 before annihilation     2.0106,   after     2.0001
 DoSCS=F DFT=T ScalE2(SS,OS)=  1.000000  1.000000
 ExpMin= 1.03D-01 ExpMax= 8.59D+03 ExpMxC= 1.30D+03 IAcc=3 IRadAn=         5 AccDes= 0.00D+00
 HarFok:  IExCor=  205 AccDes= 0.00D+00 IRadAn=         5 IDoV=-2 UseB2=F ITyADJ=14
 ICtDFT= 12500011 ScaDFX=  1.000000  1.000000  1.000000  1.000000
 Range of M.O.s used for correlation:    11   195
 NBasis=   195 NAE=    37 NBE=    35 NFC=    10 NFV=     0
 NROrb=    185 NOA=    27 NOB=    25 NVA=   158 NVB=   160

[...]
 AX will form     1 AO Fock derivatives at one time.
 LinEq1:  Iter=  1 NonCon=     1 RMS=2.60D-03 Max=1.62D-01 NDo=     1
 LinEq1:  Iter=  2 NonCon=     1 RMS=1.07D-03 Max=4.75D-02 NDo=     1
 LinEq1:  Iter=  3 NonCon=     1 RMS=5.21D-04 Max=2.38D-02 NDo=     1
 LinEq1:  Iter=  4 NonCon=     1 RMS=2.54D-04 Max=1.12D-02 NDo=     1
 LinEq1:  Iter=  5 NonCon=     1 RMS=2.06D-04 Max=8.37D-03 NDo=     1
 LinEq1:  Iter=  6 NonCon=     1 RMS=1.29D-04 Max=6.54D-03 NDo=     1
 LinEq1:  Iter=  7 NonCon=     1 RMS=9.05D-05 Max=3.46D-03 NDo=     1
 LinEq1:  Iter=  8 NonCon=     1 RMS=6.63D-05 Max=3.22D-03 NDo=     1
 LinEq1:  Iter=  9 NonCon=     1 RMS=4.36D-05 Max=1.62D-03 NDo=     1
 LinEq1:  Iter= 10 NonCon=     1 RMS=2.61D-05 Max=1.05D-03 NDo=     1
 LinEq1:  Iter= 11 NonCon=     1 RMS=1.11D-05 Max=4.17D-04 NDo=     1
 LinEq1:  Iter= 12 NonCon=     1 RMS=6.23D-06 Max=1.78D-04 NDo=     1
 LinEq1:  Iter= 13 NonCon=     1 RMS=3.98D-06 Max=1.53D-04 NDo=     1
 LinEq1:  Iter= 14 NonCon=     1 RMS=2.27D-06 Max=4.66D-05 NDo=     1
 LinEq1:  Iter= 15 NonCon=     1 RMS=9.89D-07 Max=2.61D-05 NDo=     1
 LinEq1:  Iter= 16 NonCon=     1 RMS=3.52D-07 Max=8.39D-06 NDo=     1
 LinEq1:  Iter= 17 NonCon=     1 RMS=1.79D-07 Max=4.63D-06 NDo=     1
 LinEq1:  Iter= 18 NonCon=     1 RMS=8.88D-08 Max=2.65D-06 NDo=     1
 LinEq1:  Iter= 19 NonCon=     1 RMS=4.11D-08 Max=1.52D-06 NDo=     1
 LinEq1:  Iter= 20 NonCon=     1 RMS=2.01D-08 Max=4.39D-07 NDo=     1
 LinEq1:  Iter= 21 NonCon=     1 RMS=5.96D-09 Max=1.27D-07 NDo=     1
 LinEq1:  Iter= 22 NonCon=     1 RMS=3.65D-09 Max=1.10D-07 NDo=     1
 LinEq1:  Iter= 23 NonCon=     1 RMS=1.60D-09 Max=9.06D-08 NDo=     1
 LinEq1:  Iter= 24 NonCon=     1 RMS=6.04D-10 Max=3.30D-08 NDo=     1
 LinEq1:  Iter= 25 NonCon=     1 RMS=1.73D-10 Max=6.19D-09 NDo=     1
 LinEq1:  Iter= 26 NonCon=     1 RMS=5.19D-11 Max=1.30D-09 NDo=     1
 LinEq1:  Iter= 27 NonCon=     0 RMS=1.46D-11 Max=3.03D-10 NDo=     1
 Linear equations converged to 1.000D-10 1.000D-09 after    27 iterations.
 End of Minotr F.D. properties file   721 does not exist.
 End of Minotr F.D. properties file   722 does not exist.
 End of Minotr F.D. properties file   788 does not exist.
 D1PCM: PCM CHGder 1st derivatives, ID1Alg=3 FixD1E=F DoIter=F DoCFld=F I1PDM=6.
 Calling FoFJK, ICntrl=  10005127 FMM=F ISym2X=0 I1Cent= 0 IOpClX= 1 NMat=1 NMatS=1 NMatT=0.
 -------------------------------------------------------------------
 Center     Atomic                   Forces (Hartrees/Bohr)
 Number     Number              X              Y              Z
 -------------------------------------------------------------------
      1        8           0.009494240   -0.007363319   -0.000204278
      2        8           0.026458513   -0.045962555    0.000484479
      3        8           0.028592650    0.046033331    0.000478719
      4        7          -0.026292396   -0.001008878   -0.000474296
      5        6          -0.066325093    0.009746617   -0.000896648
      6        6          -0.040835214    0.015547900   -0.000198761
      7        6          -0.035775726   -0.022155094   -0.000291578
      8        6           0.033148240   -0.011375700   -0.000136757
      9        6           0.037801013    0.008475434    0.000432267
     10        6           0.034902025    0.000092770    0.000509747
     11        1          -0.002209989   -0.005773452   -0.000041313
     12        1          -0.001453621    0.006028133   -0.000043841
     13        1           0.000067383   -0.002900444   -0.000009895
     14        1           0.000589911    0.001933784   -0.000013668
     15        1           0.001838065    0.008681473    0.000405823
 -------------------------------------------------------------------
 Cartesian Forces:  Max     0.066325093 RMS     0.020481555

 GradGradGradGradGradGradGradGradGradGradGradGradGradGradGradGradGradGrad
 Berny optimization.
 Using GEDIIS/GDIIS optimizer.
 FormGI is forming the generalized inverse of G from B-inverse, IUseBI=4.
 Internal  Forces:  Max     0.059759044 RMS     0.015583687
 Search for a local minimum.
 Step number   2 out of a maximum of  100
 All quantities printed in internal units (Hartrees-Bohrs-Radians)
 Mixed Optimization -- RFO/linear search
 Update second derivatives using D2CorX and points    2    1
 DE=  1.11D-02 DEPred=-3.68D-02 R=-3.02D-01
 Trust test=-3.02D-01 RLast= 3.00D-01 DXMaxT set to 1.50D-01
 ITU= -1  0
 Use linear search instead of GDIIS.
     Eigenvalues ---    0.00403   0.00537   0.00863   0.01038   0.01277
     Eigenvalues ---    0.01312   0.02108   0.02203   0.02459   0.02620
     Eigenvalues ---    0.02783   0.03286   0.09835   0.10657   0.11117
     Eigenvalues ---    0.12281   0.15128   0.16593   0.17644   0.18070
     Eigenvalues ---    0.19251   0.20169   0.22235   0.24129   0.28023
     Eigenvalues ---    0.31879   0.34683   0.36401   0.36512   0.36584
     Eigenvalues ---    0.36886   0.40260   0.40413   0.44967   0.47921
     Eigenvalues ---    0.50627   0.58132   0.59139   0.60244
 RFO step:  Lambda=-1.73130112D-02 EMin= 4.03496623D-03
 Quartic linear search produced a step of -0.77161.
 Maximum step size (   0.150) exceeded in Quadratic search.
    -- Step size scaled by   0.603
 Iteration  1 RMS(Cart)=  0.03903286 RMS(Int)=  0.00036182
 Iteration  2 RMS(Cart)=  0.00050140 RMS(Int)=  0.00002973
 Iteration  3 RMS(Cart)=  0.00000015 RMS(Int)=  0.00002973
 Variable       Old X    -DE/DX   Delta X   Delta X   Delta X     New X
                                 (Linear)    (Quad)   (Total)
    R1        2.53905   0.01134   0.02807  -0.00465   0.02342   2.56247
    R2        1.83583  -0.00756   0.00075  -0.00843  -0.00768   1.82815
    R3        2.52551  -0.05299  -0.14156   0.00800  -0.13356   2.39195
    R4        2.52627  -0.05417  -0.14214   0.00502  -0.13712   2.38914
    R5        2.69286  -0.02878   0.06336  -0.09974  -0.03638   2.65648
    R6        2.61028   0.01236   0.02919  -0.01072   0.01853   2.62880
    R7        2.58203   0.02154   0.05386   0.02580   0.07970   2.66173
    R8        2.60278   0.05976   0.02691   0.04889   0.07581   2.67858
    R9        2.05341  -0.00405   0.00177  -0.00718  -0.00541   2.04800
   R10        2.60968   0.05808   0.02416   0.04141   0.06556   2.67523
   R11        2.05469  -0.00440   0.00138  -0.00818  -0.00680   2.04789
   R12        2.59105   0.01977   0.03055   0.01872   0.04923   2.64029
   R13        2.61461   0.01227   0.01385  -0.01227   0.00153   2.61614
   R14        2.05265  -0.00242   0.00162  -0.00387  -0.00225   2.05040
   R15        2.05146  -0.00143   0.00111  -0.00150  -0.00038   2.05107
    A1        1.91249   0.00861  -0.00599   0.01602   0.01003   1.92251
    A2        2.12907   0.00296   0.03400  -0.00920   0.02480   2.15388
    A3        2.07502  -0.00277  -0.01462   0.00289  -0.01173   2.06329
    A4        2.07909  -0.00019  -0.01937   0.00631  -0.01307   2.06602
    A5        2.08398   0.00553   0.00370   0.01751   0.02115   2.10514
    A6        2.08201   0.00742   0.00555   0.01279   0.01828   2.10030
    A7        2.11719  -0.01295  -0.00924  -0.03029  -0.03943   2.07775
    A8        2.08481   0.00527  -0.00146   0.00972   0.00833   2.09314
    A9        2.11334  -0.00743   0.00562  -0.00912  -0.00353   2.10982
   A10        2.08504   0.00217  -0.00417  -0.00060  -0.00480   2.08023
   A11        2.08802   0.00468  -0.00063   0.01437   0.01377   2.10179
   A12        2.11031  -0.00682   0.00446  -0.01634  -0.01189   2.09842
   A13        2.08486   0.00214  -0.00384   0.00198  -0.00188   2.08298
   A14        2.05075   0.00287  -0.00023  -0.00322  -0.00340   2.04735
   A15        2.11041   0.01473   0.00655   0.04011   0.04672   2.15713
   A16        2.12203  -0.01759  -0.00632  -0.03689  -0.04332   2.07871
   A17        2.07976   0.00983   0.00951   0.02284   0.03232   2.11208
   A18        2.10799  -0.00328  -0.00737  -0.01228  -0.01963   2.08836
   A19        2.09543  -0.00655  -0.00214  -0.01056  -0.01269   2.08274
   A20        2.07456   0.01077   0.00814   0.02026   0.02833   2.10289
   A21        2.09180  -0.00391  -0.00680  -0.01424  -0.02101   2.07080
   A22        2.11682  -0.00686  -0.00134  -0.00602  -0.00732   2.10950
    D1       -3.11480  -0.00020   0.00076  -0.00333  -0.00259  -3.11739
    D2        0.02523  -0.00007   0.00052  -0.00212  -0.00159   0.02364
    D3        0.00149  -0.00003  -0.00040  -0.00098  -0.00137   0.00013
    D4       -3.13801  -0.00008  -0.00040  -0.00176  -0.00216  -3.14017
    D5        3.13982   0.00009   0.00049   0.00144   0.00194  -3.14143
    D6        0.00031   0.00003   0.00049   0.00066   0.00115   0.00146
    D7       -3.13644  -0.00009   0.00014  -0.00072  -0.00058  -3.13701
    D8        0.00365  -0.00006   0.00015  -0.00012   0.00003   0.00368
    D9        0.00303  -0.00001   0.00016   0.00013   0.00028   0.00331
   D10       -3.14008   0.00002   0.00017   0.00073   0.00089  -3.13919
   D11        3.13581   0.00014  -0.00020   0.00113   0.00092   3.13673
   D12       -0.00429   0.00006  -0.00012   0.00036   0.00024  -0.00405
   D13       -0.00366   0.00006  -0.00021   0.00027   0.00006  -0.00359
   D14        3.13943  -0.00001  -0.00013  -0.00049  -0.00062   3.13882
   D15        0.00067  -0.00002  -0.00004  -0.00064  -0.00070  -0.00002
   D16        3.13985   0.00004  -0.00003   0.00064   0.00059   3.14044
   D17       -3.13943  -0.00004  -0.00006  -0.00122  -0.00129  -3.14073
   D18       -0.00026   0.00002  -0.00005   0.00006  -0.00001  -0.00026
   D19        0.00060  -0.00007   0.00013  -0.00018  -0.00004   0.00056
   D20        3.14140  -0.00007   0.00007  -0.00016  -0.00009   3.14132
   D21        3.14072  -0.00001   0.00006   0.00056   0.00062   3.14134
   D22       -0.00167  -0.00000   0.00000   0.00058   0.00058  -0.00109
   D23        3.13627   0.00018  -0.00029   0.00206   0.00176   3.13803
   D24       -0.00292   0.00011  -0.00029   0.00079   0.00048  -0.00244
   D25       -0.00374   0.00002  -0.00005   0.00077   0.00072  -0.00302
   D26        3.14025  -0.00005  -0.00006  -0.00050  -0.00055   3.13969
   D27       -3.13685  -0.00012   0.00024  -0.00166  -0.00144  -3.13829
   D28        0.00554  -0.00013   0.00030  -0.00168  -0.00138   0.00416
   D29        0.00311   0.00003  -0.00001  -0.00037  -0.00038   0.00273
   D30       -3.13768   0.00002   0.00005  -0.00039  -0.00033  -3.13801
         Item               Value     Threshold  Converged?
 Maximum Force            0.059759     0.000450     NO 
 RMS     Force            0.015584     0.000300     NO 
 Maximum Displacement     0.154270     0.001800     NO 
 RMS     Displacement     0.039067     0.001200     NO 
 Predicted change in Energy=-2.513148D-03
 GradGradGradGradGradGradGradGradGradGradGradGradGradGradGradGradGradGrad

                          Input orientation:                          
 ---------------------------------------------------------------------
 Center     Atomic      Atomic             Coordinates (Angstroms)
 Number     Number       Type             X           Y           Z
 ---------------------------------------------------------------------
      1          8           0        2.264462    0.008649    0.015654
      2          8           0       -3.896451    1.231464   -0.039174
      3          8           0       -3.954037   -0.995523   -0.039251
      4          7           0       -3.325856    0.101628   -0.031917
      5          6           0       -1.920643    0.066767   -0.014765
      6          6           0       -1.182775    1.246021   -0.005921
      7          6           0       -1.239593   -1.166143   -0.007858
      8          6           0        0.909009   -0.029236    0.008583
      9          6           0        0.233663    1.193879    0.005743
     10          6           0        0.175545   -1.203361    0.003472
     11          1           0       -1.676139    2.210964   -0.008652
     12          1           0       -1.795331   -2.096486   -0.011944
     13          1           0        0.804787    2.116411    0.011526
     14          1           0        0.670656   -2.169224    0.008841
     15          1           0        2.623094   -0.889600   -0.004954
 ---------------------------------------------------------------------
                    Distance matrix (angstroms):
                    1          2          3          4          5
     1  O    0.000000
     2  O    6.281332   0.000000
     3  O    6.299294   2.227731   0.000000
     4  N    5.591294   1.265765   1.264280   0.000000
     5  C    4.185619   2.293672   2.294286   1.405750   0.000000
     6  C    3.662650   2.713919   3.564480   2.429631   1.391103
     7  C    3.695821   3.578882   2.719982   2.441376   1.408526
     8  C    1.356000   4.968309   4.958348   4.237081   2.831377
     9  C    2.351385   4.130529   4.725709   3.723521   2.431426
    10  C    2.415097   4.744612   4.135029   3.736851   2.451033
    11  H    4.514324   2.426961   3.933359   2.677948   2.158101
    12  H    4.573213   3.935823   2.423402   2.678547   2.166882
    13  H    2.563851   4.784072   5.686222   4.596026   3.410235
    14  H    2.698777   5.694334   4.771547   4.596796   3.422724
    15  H    0.967415   6.855986   6.578073   6.031025   4.643304
                    6          7          8          9         10
     6  C    0.000000
     7  C    2.412834   0.000000
     8  C    2.449909   2.430909   0.000000
     9  C    1.417446   2.782152   1.397180   0.000000
    10  C    2.800820   1.415673   1.384401   2.397945   0.000000
    11  H    1.083757   3.405206   3.420787   2.163796   3.884134
    12  H    3.398179   1.083697   3.404028   3.865699   2.163854
    13  H    2.169859   3.867174   2.148179   1.085027   3.378890
    14  H    3.885784   2.157661   2.153221   3.391376   1.085382
    15  H    4.364117   3.872575   1.917940   3.170233   2.467592
                   11         12         13         14         15
    11  H    0.000000
    12  H    4.309100   0.000000
    13  H    2.482809   4.950725   0.000000
    14  H    4.969285   2.467147   4.287734   0.000000
    15  H    5.300652   4.580295   3.513205   2.334447   0.000000
 Symmetry turned off by external request.
 Stoichiometry    C6H5NO3(3)
 Framework group  C1[X(C6H5NO3)]
 Deg. of freedom    39
 Full point group                 C1      NOp   1
 Rotational constants (GHZ):           3.9330503           0.8110907           0.6724254
 Standard basis: 6-311G(d) (5D, 7F)
   195 basis functions,   345 primitive gaussians,   205 cartesian basis functions
    37 alpha electrons       35 beta electrons
       nuclear repulsion energy       493.0247396382 Hartrees.
 NAtoms=   15 NActive=   15 NUniq=   15 SFac= 1.00D+00 NAtFMM=   60 NAOKFM=F Big=F
 Integral buffers will be    131072 words long.
 Regular integral format.
 Two-electron integral symmetry is turned off.
 ------------------------------------------------------------------------------
 Polarizable Continuum Model (PCM)
 =================================
 Model                : PCM.
 Atomic radii         : UFF (Universal Force Field).
 Polarization charges : Total charges.
 Charge compensation  : None.
 Solution method      : Matrix inversion.
 Cavity type          : Scaled VdW (van der Waals Surface) (Alpha=1.100).
 Cavity algorithm     : GePol (No added spheres)
                        Default sphere list used, NSphG=   15.
                        Lebedev-Laikov grids with approx.  5.0 points / Ang**2.
                        Smoothing algorithm: York/Karplus (Gamma=1.0000).
                        Polarization charges: spherical gaussians, with
                                              point-specific exponents (IZeta= 3).
                        Self-potential: point-specific (ISelfS= 7).
                        Self-field    : sphere-specific E.n sum rule (ISelfD= 2).
 1st derivatives      : Analytical E(r).r(x)/FMM algorithm (CHGder, D1EAlg=3).
                        Cavity 1st derivative terms included.
 Solvent              : Water, Eps=  78.355300 Eps(inf)=   1.777849
 ------------------------------------------------------------------------------
 Spheres list:
 ISph  on   Nord     Re0    Alpha      Xe            Ye            Ze
    1   O      1    1.7500  1.100      2.264462      0.008649      0.015654
    2   O      2    1.7500  1.100     -3.896451      1.231464     -0.039174
    3   O      3    1.7500  1.100     -3.954037     -0.995523     -0.039251
    4   N      4    1.8300  1.100     -3.325856      0.101628     -0.031917
    5   C      5    1.9255  1.100     -1.920643      0.066767     -0.014765
    6   C      6    1.9255  1.100     -1.182775      1.246021     -0.005921
    7   C      7    1.9255  1.100     -1.239593     -1.166143     -0.007858
    8   C      8    1.9255  1.100      0.909009     -0.029236      0.008583
    9   C      9    1.9255  1.100      0.233663      1.193879      0.005743
   10   C     10    1.9255  1.100      0.175545     -1.203361      0.003472
   11   H     11    1.4430  1.100     -1.676139      2.210964     -0.008652
   12   H     12    1.4430  1.100     -1.795331     -2.096486     -0.011944
   13   H     13    1.4430  1.100      0.804787      2.116411      0.011526
   14   H     14    1.4430  1.100      0.670656     -2.169224      0.008841
   15   H     15    1.4430  1.100      2.623094     -0.889600     -0.004954
 ------------------------------------------------------------------------------
 One-electron integrals computed using PRISM.
 NBasis=   195 RedAO= T EigKep=  2.29D-04  NBF=   195
 NBsUse=   195 1.00D-06 EigRej= -1.00D+00 NBFU=   195
 Lowest energy guess from the checkpoint file:  "pNP.chk"
 B after Tr=     0.003043   -0.001610   -0.000486
         Rot=    1.000000   -0.000046   -0.000144    0.000427 Ang=  -0.05 deg.
 B after Tr=    -0.004262   -0.001289   -0.000508
         Rot=    1.000000   -0.000034   -0.000135    0.000836 Ang=  -0.10 deg.
 Initial guess <Sx>= 0.0000 <Sy>= 0.0000 <Sz>= 1.0000 <S**2>= 2.0085 S= 1.0028
 Keep R1 and R2 ints in memory in canonical form, NReq=369583074.
 Requested convergence on RMS density matrix=1.00D-08 within 128 cycles.
 Requested convergence on MAX density matrix=1.00D-06.
 Requested convergence on             energy=1.00D-06.
 No special actions if energy rises.
 Inv3:  Mode=1 IEnd=     5846448.
 Iteration    1 A*A^-1 deviation from unit magnitude is 4.11D-15 for   1379.
 Iteration    1 A*A^-1 deviation from orthogonality  is 2.09D-15 for   1379   1150.
 Iteration    1 A^-1*A deviation from unit magnitude is 4.11D-15 for   1379.
 Iteration    1 A^-1*A deviation from orthogonality  is 2.21D-15 for    931    121.
 Error on total polarization charges =  0.00620
 SCF Done:  E(UM062X) =  -511.777726321     A.U. after   23 cycles
            NFock= 23  Conv=0.48D-08     -V/T= 2.0030
 <Sx>= 0.0000 <Sy>= 0.0000 <Sz>= 1.0000 <S**2>= 2.0102 S= 1.0034
 <L.S>=  0.00000000000    
 Annihilation of the first spin contaminant:
 S**2 before annihilation     2.0102,   after     2.0001
 DoSCS=F DFT=T ScalE2(SS,OS)=  1.000000  1.000000
 ExpMin= 1.03D-01 ExpMax= 8.59D+03 ExpMxC= 1.30D+03 IAcc=3 IRadAn=         5 AccDes= 0.00D+00
 HarFok:  IExCor=  205 AccDes= 0.00D+00 IRadAn=         5 IDoV=-2 UseB2=F ITyADJ=14
 ICtDFT= 12500011 ScaDFX=  1.000000  1.000000  1.000000  1.000000
 Range of M.O.s used for correlation:    11   195
 NBasis=   195 NAE=    37 NBE=    35 NFC=    10 NFV=     0
 NROrb=    185 NOA=    27 NOB=    25 NVA=   158 NVB=   160

 **** Warning!!: The largest alpha MO coefficient is  0.16882130D+02


 **** Warning!!: The largest beta MO coefficient is  0.17368138D+02

 Ignoring spin specification with unrestricted ground state.
 Keep R1, R2, and R3 ints in memory in canonical form, NReq=554503116.
 NEqPCM:  Using equilibrium solvation (IEInf=0, Eps=  78.3553, EpsInf=   1.7778)
 Generating guess from densities on rwf.
 Convergence on wavefunction:    0.000001000000000
 Iteration     1 Dimension     3 NMult     0 NNew      3
 CISAX will form     3 AO SS matrices at one time.
