 Entering Gaussian System, Link 0=g16
 Initial command:
 /arc/software/Gaussian/g16.c01/l1.exe "/tmp/slurm/1126566/Gau-126631.inp" -scrdir="/tmp/slurm/1126566/"
 Entering Link 1 = /arc/software/Gaussian/g16.c01/l1.exe PID=    126632.
  
 Copyright (c) 1988-2019, Gaussian, Inc.  All Rights Reserved.
  
 This is part of the Gaussian(R) 16 program.  It is based on
 the Gaussian(R) 09 system (copyright 2009, Gaussian, Inc.),
 the Gaussian(R) 03 system (copyright 2003, Gaussian, Inc.),
 the Gaussian(R) 98 system (copyright 1998, Gaussian, Inc.),
 the Gaussian(R) 94 system (copyright 1995, Gaussian, Inc.),
 the Gaussian 92(TM) system (copyright 1992, Gaussian, Inc.),
 the Gaussian 90(TM) system (copyright 1990, Gaussian, Inc.),
 the Gaussian 88(TM) system (copyright 1988, Gaussian, Inc.),
 the Gaussian 86(TM) system (copyright 1986, Carnegie Mellon
 University), and the Gaussian 82(TM) system (copyright 1983,
 Carnegie Mellon University). Gaussian is a federally registered
 trademark of Gaussian, Inc.
  
 This software contains proprietary and confidential information,
 including trade secrets, belonging to Gaussian, Inc.
  
 This software is provided under written license and may be
 used, copied, transmitted, or stored only in accord with that
 written license.
  
 The following legend is applicable only to US Government
 contracts under FAR:
  
                    RESTRICTED RIGHTS LEGEND
  
 Use, reproduction and disclosure by the US Government is
 subject to restrictions as set forth in subparagraphs (a)
 and (c) of the Commercial Computer Software - Restricted
 Rights clause in FAR 52.227-19.
  
 Gaussian, Inc.
 340 Quinnipiac St., Bldg. 40, Wallingford CT 06492
  
  
 ---------------------------------------------------------------
 Warning -- This program may not be used in any manner that
 competes with the business of Gaussian, Inc. or will provide
 assistance to any competitor of Gaussian, Inc.  The licensee
 of this program is prohibited from giving any competitor of
 Gaussian, Inc. access to this program.  By using this program,
 the user acknowledges that Gaussian, Inc. is engaged in the
 business of creating and licensing software in the field of
 computational chemistry and represents and warrants to the
 licensee that it is not a competitor of Gaussian, Inc. and that
 it will not use this program in any manner prohibited above.
 ---------------------------------------------------------------
  

 Cite this work as:
 Gaussian 16, Revision C.01,
 M. J. Frisch, G. W. Trucks, H. B. Schlegel, G. E. Scuseria, 
 M. A. Robb, J. R. Cheeseman, G. Scalmani, V. Barone, 
 G. A. Petersson, H. Nakatsuji, X. Li, M. Caricato, A. V. Marenich, 
 J. Bloino, B. G. Janesko, R. Gomperts, B. Mennucci, H. P. Hratchian, 
 J. V. Ortiz, A. F. Izmaylov, J. L. Sonnenberg, D. Williams-Young, 
 F. Ding, F. Lipparini, F. Egidi, J. Goings, B. Peng, A. Petrone, 
 T. Henderson, D. Ranasinghe, V. G. Zakrzewski, J. Gao, N. Rega, 
 G. Zheng, W. Liang, M. Hada, M. Ehara, K. Toyota, R. Fukuda, 
 J. Hasegawa, M. Ishida, T. Nakajima, Y. Honda, O. Kitao, H. Nakai, 
 T. Vreven, K. Throssell, J. A. Montgomery, Jr., J. E. Peralta, 
 F. Ogliaro, M. J. Bearpark, J. J. Heyd, E. N. Brothers, K. N. Kudin, 
 V. N. Staroverov, T. A. Keith, R. Kobayashi, J. Normand, 
 K. Raghavachari, A. P. Rendell, J. C. Burant, S. S. Iyengar, 
 J. Tomasi, M. Cossi, J. M. Millam, M. Klene, C. Adamo, R. Cammi, 
 J. W. Ochterski, R. L. Martin, K. Morokuma, O. Farkas, 
 J. B. Foresman, and D. J. Fox, Gaussian, Inc., Wallingford CT, 2019.
 
 ******************************************
 Gaussian 16:  ES64L-G16RevC.01  3-Jul-2019
                 7-Jun-2024 
 ******************************************
 %chk=ground_state_opt.chk
 %mem=128GB
 %nprocshared=4
 Will use up to    4 processors via shared memory.
 -------------------------------------------------------------
 # opt B3LYP/6-311g* scrf=(solvent=water) int=ultrafine Nosymm
 -------------------------------------------------------------
 1/18=20,19=15,26=6,38=1/1,3;
 2/9=110,12=2,15=1,17=6,18=5,40=1/2;
 3/5=4,6=6,7=1,11=2,25=1,30=1,70=2201,71=1,72=1,74=-5,75=-5/1,2,3;
 4//1;
 5/5=2,38=5,53=1/2;
 6/7=2,8=2,9=2,10=2,28=1/1;
 7/30=1/1,2,3,16;
 1/18=20,19=15,26=6/3(2);
 2/9=110,15=1/2;
 99//99;
 2/9=110,15=1/2;
 3/5=4,6=6,7=1,11=2,25=1,30=1,70=2205,71=1,72=1,74=-5,75=-5/1,2,3;
 4/5=5,16=3,69=1/1;
 5/5=2,38=5,53=1/2;
 7/30=1/1,2,3,16;
 1/18=20,19=15,26=6/3(-5);
 2/9=110,15=1/2;
 6/7=2,8=2,9=2,10=2,19=2,28=1/1;
 99/9=1/99;
 -------------------------------------------------
 3-nitroanisole ground state geometry optimization
 -------------------------------------------------
 Symbolic Z-matrix:
 Charge =  0 Multiplicity = 1
 O                     1.06516   0.17061  -0.03358 
 O                     1.44703  -3.33329  -3.68437 
 O                    -0.26208  -2.9303   -4.99902 
 N                     0.43572  -2.69155  -4.00298 
 C                     0.42012  -0.22115  -1.17438 
 C                     0.03614  -1.573    -3.14054 
 C                     0.80097  -1.27701  -2.00146 
 C                    -0.71355   0.53277  -1.49769 
 C                    -1.10048  -0.82     -3.46106 
 C                    -1.47215   0.23787  -2.63316 
 C                     2.1902   -0.6053    0.3655 
 H                     1.67954  -1.87309  -1.77752 
 H                    -1.01005   1.35896  -0.85383 
 H                    -1.69912  -1.04269  -4.34166 
 H                    -2.35175   0.83313  -2.8675 
 H                     2.56778  -0.19311   1.30567 
 H                     1.90631  -1.64728   0.54889 
 H                     2.99384  -0.53923  -0.37556 
 

 GradGradGradGradGradGradGradGradGradGradGradGradGradGradGradGradGradGrad
 Berny optimization.
 Initialization pass.
                           ----------------------------
                           !    Initial Parameters    !
                           ! (Angstroms and Degrees)  !
 --------------------------                            --------------------------
 ! Name  Definition              Value          Derivative Info.                !
 --------------------------------------------------------------------------------
 ! R1    R(1,5)                  1.3678         estimate D2E/DX2                !
 ! R2    R(1,11)                 1.4237         estimate D2E/DX2                !
 ! R3    R(2,4)                  1.2394         estimate D2E/DX2                !
 ! R4    R(3,4)                  1.2394         estimate D2E/DX2                !
 ! R5    R(4,6)                  1.4679         estimate D2E/DX2                !
 ! R6    R(5,7)                  1.3943         estimate D2E/DX2                !
 ! R7    R(5,8)                  1.3993         estimate D2E/DX2                !
 ! R8    R(6,7)                  1.4036         estimate D2E/DX2                !
 ! R9    R(6,9)                  1.4006         estimate D2E/DX2                !
 ! R10   R(7,12)                 1.0851         estimate D2E/DX2                !
 ! R11   R(8,10)                 1.397          estimate D2E/DX2                !
 ! R12   R(8,13)                 1.0886         estimate D2E/DX2                !
 ! R13   R(9,10)                 1.3938         estimate D2E/DX2                !
 ! R14   R(9,14)                 1.0878         estimate D2E/DX2                !
 ! R15   R(10,15)                1.0876         estimate D2E/DX2                !
 ! R16   R(11,16)                1.0938         estimate D2E/DX2                !
 ! R17   R(11,17)                1.0954         estimate D2E/DX2                !
 ! R18   R(11,18)                1.0952         estimate D2E/DX2                !
 ! A1    A(5,1,11)             116.7651         estimate D2E/DX2                !
 ! A2    A(2,4,3)              124.4906         estimate D2E/DX2                !
 ! A3    A(2,4,6)              117.7523         estimate D2E/DX2                !
 ! A4    A(3,4,6)              117.7571         estimate D2E/DX2                !
 ! A5    A(1,5,7)              125.6495         estimate D2E/DX2                !
 ! A6    A(1,5,8)              114.8621         estimate D2E/DX2                !
 ! A7    A(7,5,8)              119.4884         estimate D2E/DX2                !
 ! A8    A(4,6,7)              119.2869         estimate D2E/DX2                !
 ! A9    A(4,6,9)              119.7453         estimate D2E/DX2                !
 ! A10   A(7,6,9)              120.9676         estimate D2E/DX2                !
 ! A11   A(5,7,6)              119.4896         estimate D2E/DX2                !
 ! A12   A(5,7,12)             120.982          estimate D2E/DX2                !
 ! A13   A(6,7,12)             119.5285         estimate D2E/DX2                !
 ! A14   A(5,8,10)             120.9288         estimate D2E/DX2                !
 ! A15   A(5,8,13)             119.5315         estimate D2E/DX2                !
 ! A16   A(10,8,13)            119.5394         estimate D2E/DX2                !
 ! A17   A(6,9,10)             119.2438         estimate D2E/DX2                !
 ! A18   A(6,9,14)             121.4513         estimate D2E/DX2                !
 ! A19   A(10,9,14)            119.3048         estimate D2E/DX2                !
 ! A20   A(8,10,9)             119.8805         estimate D2E/DX2                !
 ! A21   A(8,10,15)            119.9161         estimate D2E/DX2                !
 ! A22   A(9,10,15)            120.2033         estimate D2E/DX2                !
 ! A23   A(1,11,16)            107.9594         estimate D2E/DX2                !
 ! A24   A(1,11,17)            111.1329         estimate D2E/DX2                !
 ! A25   A(1,11,18)            110.935          estimate D2E/DX2                !
 ! A26   A(16,11,17)           107.6993         estimate D2E/DX2                !
 ! A27   A(16,11,18)           107.7932         estimate D2E/DX2                !
 ! A28   A(17,11,18)           111.1521         estimate D2E/DX2                !
 ! D1    D(11,1,5,7)            -2.6709         estimate D2E/DX2                !
 ! D2    D(11,1,5,8)           177.3293         estimate D2E/DX2                !
 ! D3    D(5,1,11,16)         -177.822          estimate D2E/DX2                !
 ! D4    D(5,1,11,17)          -59.9224         estimate D2E/DX2                !
 ! D5    D(5,1,11,18)           64.2773         estimate D2E/DX2                !
 ! D6    D(2,4,6,7)             -0.1372         estimate D2E/DX2                !
 ! D7    D(2,4,6,9)           -179.9667         estimate D2E/DX2                !
 ! D8    D(3,4,6,7)            179.7911         estimate D2E/DX2                !
 ! D9    D(3,4,6,9)             -0.0384         estimate D2E/DX2                !
 ! D10   D(1,5,7,6)            179.5702         estimate D2E/DX2                !
 ! D11   D(1,5,7,12)            -0.424          estimate D2E/DX2                !
 ! D12   D(8,5,7,6)             -0.4299         estimate D2E/DX2                !
 ! D13   D(8,5,7,12)           179.5759         estimate D2E/DX2                !
 ! D14   D(1,5,8,10)          -179.6712         estimate D2E/DX2                !
 ! D15   D(1,5,8,13)             0.1591         estimate D2E/DX2                !
 ! D16   D(7,5,8,10)             0.329          estimate D2E/DX2                !
 ! D17   D(7,5,8,13)          -179.8408         estimate D2E/DX2                !
 ! D18   D(4,6,7,5)           -179.5699         estimate D2E/DX2                !
 ! D19   D(4,6,7,12)             0.4244         estimate D2E/DX2                !
 ! D20   D(9,6,7,5)              0.2575         estimate D2E/DX2                !
 ! D21   D(9,6,7,12)          -179.7482         estimate D2E/DX2                !
 ! D22   D(4,6,9,10)           179.8521         estimate D2E/DX2                !
 ! D23   D(4,6,9,14)            -0.1522         estimate D2E/DX2                !
 ! D24   D(7,6,9,10)             0.0255         estimate D2E/DX2                !
 ! D25   D(7,6,9,14)          -179.9788         estimate D2E/DX2                !
 ! D26   D(5,8,10,9)            -0.0452         estimate D2E/DX2                !
 ! D27   D(5,8,10,15)          179.8468         estimate D2E/DX2                !
 ! D28   D(13,8,10,9)         -179.8755         estimate D2E/DX2                !
 ! D29   D(13,8,10,15)           0.0165         estimate D2E/DX2                !
 ! D30   D(6,9,10,8)            -0.1315         estimate D2E/DX2                !
 ! D31   D(6,9,10,15)          179.9769         estimate D2E/DX2                !
 ! D32   D(14,9,10,8)          179.8728         estimate D2E/DX2                !
 ! D33   D(14,9,10,15)          -0.0189         estimate D2E/DX2                !
 --------------------------------------------------------------------------------
 Trust Radius=3.00D-01 FncErr=5.00D-06 GrdErr=5.00D-06 EigMax=2.50D+02 EigMin=1.00D-04
 Number of steps in this run=     89 maximum allowed number of steps=    108.
 GradGradGradGradGradGradGradGradGradGradGradGradGradGradGradGradGradGrad

                          Input orientation:                          
 ---------------------------------------------------------------------
 Center     Atomic      Atomic             Coordinates (Angstroms)
 Number     Number       Type             X           Y           Z
 ---------------------------------------------------------------------
      1          8           0        1.065160    0.170610   -0.033580
      2          8           0        1.447030   -3.333290   -3.684370
      3          8           0       -0.262080   -2.930300   -4.999020
      4          7           0        0.435720   -2.691550   -4.002980
      5          6           0        0.420120   -0.221150   -1.174380
      6          6           0        0.036140   -1.573000   -3.140540
      7          6           0        0.800970   -1.277010   -2.001460
      8          6           0       -0.713550    0.532770   -1.497690
      9          6           0       -1.100480   -0.820000   -3.461060
     10          6           0       -1.472150    0.237870   -2.633160
     11          6           0        2.190200   -0.605300    0.365500
     12          1           0        1.679540   -1.873090   -1.777520
     13          1           0       -1.010050    1.358960   -0.853830
     14          1           0       -1.699120   -1.042690   -4.341660
     15          1           0       -2.351750    0.833130   -2.867500
     16          1           0        2.567780   -0.193110    1.305670
     17          1           0        1.906310   -1.647280    0.548890
     18          1           0        2.993840   -0.539230   -0.375560
 ---------------------------------------------------------------------
                    Distance matrix (angstroms):
                    1          2          3          4          5
     1  O    0.000000
     2  O    5.074584   0.000000
     3  O    6.002733   2.193573   0.000000
     4  N    4.933993   1.239391   1.239364   0.000000
     5  C    1.367837   4.127955   4.736324   3.755542   0.000000
     6  C    3.708404   2.320557   2.320592   1.467863   2.416759
     7  C    2.457224   2.734569   3.584524   2.477986   1.394255
     8  C    2.332078   4.939240   4.945300   4.241879   1.399333
     9  C    4.173598   3.585568   2.742554   2.481187   2.810650
    10  C    3.633219   4.730733   4.135077   3.754714   2.432987
    11  C    1.423733   4.939198   6.340140   5.149200   2.377390
    12  H    2.755993   2.412949   3.907127   2.677618   2.163059
    13  H    2.528138   6.005532   6.011640   5.330481   2.155200
    14  H    5.260503   3.946788   2.461763   2.718637   3.898432
    15  H    4.488353   5.697110   4.803489   4.634940   3.414883
    16  H    2.045422   6.001442   7.432996   6.242567   3.280835
    17  H    2.086032   4.579744   6.093223   4.896188   2.685566
    18  H    2.083418   4.598654   6.139594   4.933015   2.713544
                    6          7          8          9         10
     6  C    0.000000
     7  C    1.403595   0.000000
     8  C    2.774033   2.413060   0.000000
     9  C    1.400588   2.440246   2.415476   0.000000
    10  C    2.410731   2.803744   1.397044   1.393788   0.000000
    11  C    4.227143   2.825536   3.632966   5.051458   4.807879
    12  H    2.156071   1.085056   3.404900   3.416404   3.888627
    13  H    3.862635   3.397821   1.088604   3.399072   2.153229
    14  H    2.176016   3.432476   3.397291   1.087850   2.147166
    15  H    3.400887   3.891318   2.156454   2.156578   1.087633
    16  H    5.299253   3.903020   4.376398   6.047383   5.658724
    17  H    4.137022   2.804133   3.975522   5.079850   5.009314
    18  H    4.178730   2.827817   4.019092   5.134452   5.064159
                   11         12         13         14         15
    11  C    0.000000
    12  H    2.541771   0.000000
    13  H    3.947997   4.305026   0.000000
    14  H    6.121722   4.322004   4.290419   0.000000
    15  H    5.757663   4.976242   2.476191   2.473413   0.000000
    16  H    1.093795   3.621790   4.457940   7.128854   6.532250
    17  H    1.095421   2.348318   4.417042   6.105910   5.996268
    18  H    1.095159   2.339243   4.456793   6.165006   6.055450
                   16         17         18
    16  H    0.000000
    17  H    1.767730   0.000000
    18  H    1.768576   1.806960   0.000000
 Symmetry turned off by external request.
 Stoichiometry    C7H7NO3
 Framework group  C1[X(C7H7NO3)]
 Deg. of freedom    48
 Full point group                 C1      NOp   1
 Rotational constants (GHZ):           1.9209295           0.7956508           0.5647318
 Standard basis: 6-311G(d) (5D, 7F)
   219 basis functions,   387 primitive gaussians,   230 cartesian basis functions
    40 alpha electrons       40 beta electrons
       nuclear repulsion energy       586.5840890643 Hartrees.
 NAtoms=   18 NActive=   18 NUniq=   18 SFac= 1.00D+00 NAtFMM=   60 NAOKFM=F Big=F
 Integral buffers will be    131072 words long.
 Raffenetti 2 integral format.
 Two-electron integral symmetry is turned off.
 ------------------------------------------------------------------------------
 Polarizable Continuum Model (PCM)
 =================================
 Model                : PCM.
 Atomic radii         : UFF (Universal Force Field).
 Polarization charges : Total charges.
 Charge compensation  : None.
 Solution method      : On-the-fly selection.
 Cavity type          : Scaled VdW (van der Waals Surface) (Alpha=1.100).
 Cavity algorithm     : GePol (No added spheres)
                        Default sphere list used, NSphG=   18.
                        Lebedev-Laikov grids with approx.  5.0 points / Ang**2.
                        Smoothing algorithm: York/Karplus (Gamma=1.0000).
                        Polarization charges: spherical gaussians, with
                                              point-specific exponents (IZeta= 3).
                        Self-potential: point-specific (ISelfS= 7).
                        Self-field    : sphere-specific E.n sum rule (ISelfD= 2).
 1st derivatives      : Analytical E(r).r(x)/FMM algorithm (CHGder, D1EAlg=3).
                        Cavity 1st derivative terms included.
 Solvent              : Water, Eps=  78.355300 Eps(inf)=   1.777849
 ------------------------------------------------------------------------------
 Spheres list:
 ISph  on   Nord     Re0    Alpha      Xe            Ye            Ze
    1   O      1    1.7500  1.100      1.065160      0.170610     -0.033580
    2   O      2    1.7500  1.100      1.447030     -3.333290     -3.684370
    3   O      3    1.7500  1.100     -0.262080     -2.930300     -4.999020
    4   N      4    1.8300  1.100      0.435720     -2.691550     -4.002980
    5   C      5    1.9255  1.100      0.420120     -0.221150     -1.174380
    6   C      6    1.9255  1.100      0.036140     -1.573000     -3.140540
    7   C      7    1.9255  1.100      0.800970     -1.277010     -2.001460
    8   C      8    1.9255  1.100     -0.713550      0.532770     -1.497690
    9   C      9    1.9255  1.100     -1.100480     -0.820000     -3.461060
   10   C     10    1.9255  1.100     -1.472150      0.237870     -2.633160
   11   C     11    1.9255  1.100      2.190200     -0.605300      0.365500
   12   H     12    1.4430  1.100      1.679540     -1.873090     -1.777520
   13   H     13    1.4430  1.100     -1.010050      1.358960     -0.853830
   14   H     14    1.4430  1.100     -1.699120     -1.042690     -4.341660
   15   H     15    1.4430  1.100     -2.351750      0.833130     -2.867500
   16   H     16    1.4430  1.100      2.567780     -0.193110      1.305670
   17   H     17    1.4430  1.100      1.906310     -1.647280      0.548890
   18   H     18    1.4430  1.100      2.993840     -0.539230     -0.375560
 ------------------------------------------------------------------------------
 One-electron integrals computed using PRISM.
 NBasis=   219 RedAO= T EigKep=  2.15D-04  NBF=   219
 NBsUse=   219 1.00D-06 EigRej= -1.00D+00 NBFU=   219
 ExpMin= 1.03D-01 ExpMax= 8.59D+03 ExpMxC= 1.30D+03 IAcc=3 IRadAn=         5 AccDes= 0.00D+00
 Harris functional with IExCor=  402 and IRadAn=       5 diagonalized for initial guess.
 HarFok:  IExCor=  402 AccDes= 0.00D+00 IRadAn=         5 IDoV= 1 UseB2=F ITyADJ=14
 ICtDFT=  3500011 ScaDFX=  1.000000  1.000000  1.000000  1.000000
 FoFCou: FMM=F IPFlag=           0 FMFlag=      100000 FMFlg1=           0
         NFxFlg=           0 DoJE=T BraDBF=F KetDBF=T FulRan=T
         wScrn=  0.000000 ICntrl=       500 IOpCl=  0 I1Cent=   200000004 NGrid=           0
         NMat0=    1 NMatS0=      1 NMatT0=    0 NMatD0=    1 NMtDS0=    0 NMtDT0=    0
 Symmetry not used in FoFCou.
 Keep R1 ints in memory in canonical form, NReq=296340445.
 Requested convergence on RMS density matrix=1.00D-08 within 128 cycles.
 Requested convergence on MAX density matrix=1.00D-06.
 Requested convergence on             energy=1.00D-06.
 No special actions if energy rises.
 Inv3:  Mode=1 IEnd=     7096332.
 Iteration    1 A*A^-1 deviation from unit magnitude is 6.66D-15 for    766.
 Iteration    1 A*A^-1 deviation from orthogonality  is 2.79D-15 for   1413    352.
 Iteration    1 A^-1*A deviation from unit magnitude is 7.33D-15 for    766.
 Iteration    1 A^-1*A deviation from orthogonality  is 2.83D-15 for   1424    357.
 Error on total polarization charges =  0.00848
 SCF Done:  E(RB3LYP) =  -551.414245377     A.U. after   13 cycles
            NFock= 13  Conv=0.75D-08     -V/T= 2.0036

 **********************************************************************

            Population analysis using the SCF Density.

 **********************************************************************

 Alpha  occ. eigenvalues --  -19.16608 -19.16437 -19.16385 -14.56224 -10.25873
 Alpha  occ. eigenvalues --  -10.24789 -10.22488 -10.20373 -10.20099 -10.19897
 Alpha  occ. eigenvalues --  -10.19754  -1.23462  -1.08275  -1.06331  -0.89300
 Alpha  occ. eigenvalues --   -0.81609  -0.77626  -0.73040  -0.69913  -0.62290
 Alpha  occ. eigenvalues --   -0.60553  -0.57371  -0.54419  -0.53394  -0.52067
 Alpha  occ. eigenvalues --   -0.50595  -0.49764  -0.48164  -0.46118  -0.43187
 Alpha  occ. eigenvalues --   -0.40173  -0.39954  -0.38606  -0.35619  -0.34413
 Alpha  occ. eigenvalues --   -0.32811  -0.32720  -0.30986  -0.28548  -0.25007
 Alpha virt. eigenvalues --   -0.10779  -0.02277  -0.00684   0.04707   0.06013
 Alpha virt. eigenvalues --    0.09000   0.09700   0.10675   0.11687   0.11892
 Alpha virt. eigenvalues --    0.13301   0.13934   0.15586   0.20689   0.22505
 Alpha virt. eigenvalues --    0.24641   0.25848   0.27732   0.30579   0.31460
 Alpha virt. eigenvalues --    0.32452   0.34809   0.36320   0.36932   0.39158
 Alpha virt. eigenvalues --    0.39710   0.40579   0.42092   0.42613   0.42977
 Alpha virt. eigenvalues --    0.44213   0.44886   0.47689   0.50191   0.50560
 Alpha virt. eigenvalues --    0.51845   0.55467   0.56196   0.57374   0.58711
 Alpha virt. eigenvalues --    0.59625   0.61275   0.62007   0.63606   0.64023
 Alpha virt. eigenvalues --    0.64483   0.66127   0.68973   0.71300   0.72759
 Alpha virt. eigenvalues --    0.73446   0.75571   0.77501   0.79832   0.80950
 Alpha virt. eigenvalues --    0.80989   0.82127   0.84982   0.86008   0.87384
 Alpha virt. eigenvalues --    0.89951   0.91930   0.95308   0.98060   0.98289
 Alpha virt. eigenvalues --    1.01286   1.04657   1.07746   1.09873   1.16576
 Alpha virt. eigenvalues --    1.17019   1.17296   1.19704   1.20580   1.20741
 Alpha virt. eigenvalues --    1.24744   1.31860   1.32534   1.41176   1.42006
 Alpha virt. eigenvalues --    1.45459   1.47671   1.49487   1.50226   1.53771
 Alpha virt. eigenvalues --    1.58111   1.59329   1.64728   1.65335   1.66815
 Alpha virt. eigenvalues --    1.67967   1.70712   1.73258   1.76923   1.78997
 Alpha virt. eigenvalues --    1.80704   1.85347   1.87962   1.89710   1.91015
 Alpha virt. eigenvalues --    1.94046   2.00426   2.07958   2.13052   2.14996
 Alpha virt. eigenvalues --    2.16569   2.21953   2.25615   2.27620   2.29359
 Alpha virt. eigenvalues --    2.30600   2.32793   2.34540   2.38479   2.41655
 Alpha virt. eigenvalues --    2.49649   2.52044   2.59679   2.62816   2.65088
 Alpha virt. eigenvalues --    2.65665   2.75106   2.77097   2.78384   2.80613
 Alpha virt. eigenvalues --    2.81257   2.82007   2.84674   2.87683   2.93117
 Alpha virt. eigenvalues --    2.98571   3.00277   3.07617   3.11131   3.12396
 Alpha virt. eigenvalues --    3.14228   3.17248   3.18768   3.21657   3.24809
 Alpha virt. eigenvalues --    3.26472   3.27132   3.32877   3.33426   3.34562
 Alpha virt. eigenvalues --    3.40964   3.47295   3.52207   3.59789   3.63006
 Alpha virt. eigenvalues --    3.70042   3.72448   3.81175   3.91023   3.94918
 Alpha virt. eigenvalues --    4.05182   4.39318   4.56277   4.76255   4.79810
 Alpha virt. eigenvalues --    4.81494   4.85750   4.90080   4.94210   5.21343
 Alpha virt. eigenvalues --    5.53147   5.65520   5.98346  23.19970  23.42663
 Alpha virt. eigenvalues --   23.77890  23.79383  23.98290  24.01088  24.09797
 Alpha virt. eigenvalues --   35.33190  49.79811  49.88998  49.91731
          Condensed to atoms (all electrons):
               1          2          3          4          5          6
     1  O    7.906157  -0.000000   0.000000  -0.000019   0.390327   0.006517
     2  O   -0.000000   8.180440  -0.110141   0.311024   0.001789  -0.133697
     3  O    0.000000  -0.110141   8.174232   0.320665  -0.000033  -0.141827
     4  N   -0.000019   0.311024   0.320665   6.058736   0.001164   0.226742
     5  C    0.390327   0.001789  -0.000033   0.001164   4.735577   0.042699
     6  C    0.006517  -0.133697  -0.141827   0.226742   0.042699   5.151826
     7  C   -0.077590   0.008756   0.008102  -0.033996   0.312504   0.341865
     8  C   -0.054948   0.000107   0.000058   0.000268   0.506303  -0.051950
     9  C    0.000012   0.009072   0.019968  -0.032362  -0.040810   0.434625
    10  C    0.003117  -0.000144   0.001180   0.003168  -0.030408  -0.028097
    11  C    0.262254  -0.000054  -0.000000  -0.000018  -0.096815  -0.000626
    12  H   -0.007421   0.029867   0.000914  -0.008577  -0.030915  -0.041304
    13  H    0.006975   0.000001   0.000000   0.000021  -0.053604  -0.002254
    14  H    0.000005   0.000591   0.021283  -0.008431  -0.001086  -0.041546
    15  H   -0.000122   0.000003  -0.000054  -0.000124   0.007120   0.006619
    16  H   -0.019187  -0.000001  -0.000000  -0.000001   0.003245   0.000075
    17  H   -0.033434  -0.000095  -0.000000   0.000022  -0.007321  -0.000866
    18  H   -0.033411  -0.000106  -0.000000   0.000017  -0.007973  -0.000638
               7          8          9         10         11         12
     1  O   -0.077590  -0.054948   0.000012   0.003117   0.262254  -0.007421
     2  O    0.008756   0.000107   0.009072  -0.000144  -0.000054   0.029867
     3  O    0.008102   0.000058   0.019968   0.001180  -0.000000   0.000914
     4  N   -0.033996   0.000268  -0.032362   0.003168  -0.000018  -0.008577
     5  C    0.312504   0.506303  -0.040810  -0.030408  -0.096815  -0.030915
     6  C    0.341865  -0.051950   0.434625  -0.028097  -0.000626  -0.041304
     7  C    5.537131  -0.051804  -0.092214  -0.040779  -0.011956   0.365252
     8  C   -0.051804   5.023922  -0.048251   0.523841   0.006948   0.004611
     9  C   -0.092214  -0.048251   5.122517   0.485306   0.000054   0.005649
    10  C   -0.040779   0.523841   0.485306   4.953408  -0.000311  -0.000908
    11  C   -0.011956   0.006948   0.000054  -0.000311   5.185314   0.004351
    12  H    0.365252   0.004611   0.005649  -0.000908   0.004351   0.413886
    13  H    0.013003   0.384727   0.007874  -0.038470  -0.000750  -0.000073
    14  H    0.007954   0.006232   0.377566  -0.032631   0.000001  -0.000312
    15  H   -0.001676  -0.041593  -0.041521   0.402375   0.000016   0.000036
    16  H    0.001454  -0.000425   0.000000   0.000021   0.381754  -0.000109
    17  H    0.004754   0.000458  -0.000051  -0.000033   0.374501   0.000600
    18  H    0.004609   0.000168  -0.000033  -0.000016   0.375434   0.000887
              13         14         15         16         17         18
     1  O    0.006975   0.000005  -0.000122  -0.019187  -0.033434  -0.033411
     2  O    0.000001   0.000591   0.000003  -0.000001  -0.000095  -0.000106
     3  O    0.000000   0.021283  -0.000054  -0.000000  -0.000000  -0.000000
     4  N    0.000021  -0.008431  -0.000124  -0.000001   0.000022   0.000017
     5  C   -0.053604  -0.001086   0.007120   0.003245  -0.007321  -0.007973
     6  C   -0.002254  -0.041546   0.006619   0.000075  -0.000866  -0.000638
     7  C    0.013003   0.007954  -0.001676   0.001454   0.004754   0.004609
     8  C    0.384727   0.006232  -0.041593  -0.000425   0.000458   0.000168
     9  C    0.007874   0.377566  -0.041521   0.000000  -0.000051  -0.000033
    10  C   -0.038470  -0.032631   0.402375   0.000021  -0.000033  -0.000016
    11  C   -0.000750   0.000001   0.000016   0.381754   0.374501   0.375434
    12  H   -0.000073  -0.000312   0.000036  -0.000109   0.000600   0.000887
    13  H    0.458890  -0.000151  -0.007319  -0.000112   0.000159   0.000150
    14  H   -0.000151   0.434737  -0.006358  -0.000000   0.000002   0.000002
    15  H   -0.007319  -0.006358   0.450174  -0.000000  -0.000001  -0.000001
    16  H   -0.000112  -0.000000  -0.000000   0.442421  -0.025617  -0.026186
    17  H    0.000159   0.000002  -0.000001  -0.025617   0.497829  -0.040779
    18  H    0.000150   0.000002  -0.000001  -0.026186  -0.040779   0.498112
 Mulliken charges:
               1
     1  O   -0.349233
     2  O   -0.297412
     3  O   -0.294346
     4  N    0.161702
     5  C    0.268236
     6  C    0.231835
     7  C   -0.295370
     8  C   -0.208675
     9  C   -0.207398
    10  C   -0.200619
    11  C   -0.480096
    12  H    0.263567
    13  H    0.230932
    14  H    0.242143
    15  H    0.232429
    16  H    0.242668
    17  H    0.229872
    18  H    0.229764
 Sum of Mulliken charges =  -0.00000
 Mulliken charges with hydrogens summed into heavy atoms:
               1
     1  O   -0.349233
     2  O   -0.297412
     3  O   -0.294346
     4  N    0.161702
     5  C    0.268236
     6  C    0.231835
     7  C   -0.031803
     8  C    0.022257
     9  C    0.034745
    10  C    0.031810
    11  C    0.222209
 Electronic spatial extent (au):  <R**2>=           3879.8957
 Charge=             -0.0000 electrons
 Dipole moment (field-independent basis, Debye):
    X=             -0.2721    Y=              3.3758    Z=              3.7527  Tot=              5.0550
 Quadrupole moment (field-independent basis, Debye-Ang):
   XX=            -56.4198   YY=            -77.5247   ZZ=            -84.0096
   XY=             -0.5751   XZ=              8.3525   YZ=            -20.4262
 Traceless Quadrupole moment (field-independent basis, Debye-Ang):
   XX=             16.2316   YY=             -4.8733   ZZ=            -11.3582
   XY=             -0.5751   XZ=              8.3525   YZ=            -20.4262
 Octapole moment (field-independent basis, Debye-Ang**2):
  XXX=            -48.5201  YYY=            265.0375  ZZZ=            557.2833  XYY=            -34.1960
  XXY=             76.6608  XXZ=            145.2750  XZZ=            -40.9314  YZZ=            166.7443
  YYZ=            220.6232  XYZ=            -10.8634
 Hexadecapole moment (field-independent basis, Debye-Ang**3):
 XXXX=           -550.3642 YYYY=          -1348.4470 ZZZZ=          -3754.3036 XXXY=            134.0270
 XXXZ=             -7.3844 YYYX=            196.7532 YYYZ=          -1025.0879 ZZZX=             28.6139
 ZZZY=          -1244.1834 XXYY=           -318.5825 XXZZ=           -602.1739 YYZZ=          -1071.2790
 XXYZ=           -292.0698 YYXZ=             42.5369 ZZXY=             85.3879
 N-N= 5.865840890643D+02 E-N=-2.462754488725D+03  KE= 5.494152722412D+02
 D1PCM: PCM CHGder 1st derivatives, ID1Alg=3 FixD1E=F DoIter=F DoCFld=F I1PDM=0.
 Calling FoFJK, ICntrl=      2127 FMM=F ISym2X=0 I1Cent= 0 IOpClX= 0 NMat=1 NMatS=1 NMatT=0.
 -------------------------------------------------------------------
 Center     Atomic                   Forces (Hartrees/Bohr)
 Number     Number              X              Y              Z
 -------------------------------------------------------------------
      1        8          -0.001261118   -0.005700809   -0.006785867
      2        8          -0.014434764    0.006846981   -0.007268546
      3        8           0.012254318    0.000845875    0.013566947
      4        7           0.001990675   -0.005509431   -0.004273579
      5        6          -0.002118939    0.006132625    0.004607320
      6        6          -0.006767136    0.012492727    0.007335764
      7        6           0.006431765   -0.007133446   -0.001238077
      8        6          -0.010775833    0.004700291   -0.005803074
      9        6          -0.002213164   -0.004677319   -0.007754605
     10        6           0.007930337   -0.001073274    0.006783583
     11        6           0.007303345   -0.001262808    0.006153175
     12        1          -0.003475435    0.000814795   -0.002320310
     13        1           0.002740075   -0.002816678   -0.000297413
     14        1           0.004752904   -0.001897297    0.002870088
     15        1           0.002532354   -0.001970578    0.000335745
     16        1          -0.004698153    0.002278057   -0.003175602
     17        1           0.001143596    0.000575661   -0.002668805
     18        1          -0.001334828   -0.002645373   -0.000066743
 -------------------------------------------------------------------
 Cartesian Forces:  Max     0.014434764 RMS     0.005747082

 GradGradGradGradGradGradGradGradGradGradGradGradGradGradGradGradGradGrad
 Berny optimization.
 FormGI is forming the generalized inverse of G from B-inverse, IUseBI=4.
 Internal  Forces:  Max     0.017964454 RMS     0.004210351
 Search for a local minimum.
 Step number   1 out of a maximum of   89
 All quantities printed in internal units (Hartrees-Bohrs-Radians)
 Mixed Optimization -- RFO/linear search
 Second derivative matrix not updated -- first step.
 ITU=  0
     Eigenvalues ---    0.00794   0.00794   0.01378   0.01684   0.02068
     Eigenvalues ---    0.02101   0.02112   0.02117   0.02119   0.02128
     Eigenvalues ---    0.02133   0.02143   0.02152   0.10002   0.10520
     Eigenvalues ---    0.16000   0.16000   0.16000   0.16000   0.16000
     Eigenvalues ---    0.16000   0.16000   0.22000   0.23477   0.23495
     Eigenvalues ---    0.25000   0.25000   0.25000   0.25000   0.25000
     Eigenvalues ---    0.34194   0.34223   0.34378   0.34975   0.35062
     Eigenvalues ---    0.35088   0.35390   0.35997   0.41534   0.41903
     Eigenvalues ---    0.42172   0.45454   0.45629   0.46147   0.46627
     Eigenvalues ---    0.51395   0.87283   0.87294
 RFO step:  Lambda=-3.58363552D-03 EMin= 7.94086398D-03
 Linear search not attempted -- first point.
 Iteration  1 RMS(Cart)=  0.02191800 RMS(Int)=  0.00040455
 Iteration  2 RMS(Cart)=  0.00050795 RMS(Int)=  0.00003378
 Iteration  3 RMS(Cart)=  0.00000020 RMS(Int)=  0.00003378
 Variable       Old X    -DE/DX   Delta X   Delta X   Delta X     New X
                                 (Linear)    (Quad)   (Total)
    R1        2.58484  -0.00685   0.00000  -0.01324  -0.01324   2.57160
    R2        2.69047   0.00256   0.00000   0.00605   0.00605   2.69651
    R3        2.34211  -0.01719   0.00000  -0.01962  -0.01962   2.32249
    R4        2.34206  -0.01796   0.00000  -0.02050  -0.02050   2.32156
    R5        2.77386  -0.00291   0.00000  -0.00800  -0.00800   2.76586
    R6        2.63476  -0.00140   0.00000  -0.00259  -0.00260   2.63216
    R7        2.64436   0.00259   0.00000   0.00628   0.00624   2.65060
    R8        2.65241  -0.00747   0.00000  -0.01672  -0.01669   2.63572
    R9        2.64673  -0.00990   0.00000  -0.02223  -0.02218   2.62454
   R10        2.05046  -0.00374   0.00000  -0.01046  -0.01046   2.03999
   R11        2.64003  -0.00630   0.00000  -0.01328  -0.01332   2.62671
   R12        2.05716  -0.00306   0.00000  -0.00866  -0.00866   2.04850
   R13        2.63388  -0.00087   0.00000  -0.00223  -0.00223   2.63165
   R14        2.05574  -0.00455   0.00000  -0.01285  -0.01285   2.04289
   R15        2.05533  -0.00320   0.00000  -0.00902  -0.00902   2.04630
   R16        2.06697  -0.00349   0.00000  -0.01006  -0.01006   2.05691
   R17        2.07005  -0.00129   0.00000  -0.00374  -0.00374   2.06631
   R18        2.06955  -0.00109   0.00000  -0.00315  -0.00315   2.06640
    A1        2.03794   0.00761   0.00000   0.03002   0.03002   2.06796
    A2        2.17277  -0.00548   0.00000  -0.02162  -0.02163   2.15114
    A3        2.05516   0.00280   0.00000   0.01105   0.01104   2.06620
    A4        2.05525   0.00268   0.00000   0.01058   0.01057   2.06582
    A5        2.19300  -0.00468   0.00000  -0.01973  -0.01971   2.17328
    A6        2.00472   0.00470   0.00000   0.01725   0.01727   2.02200
    A7        2.08547  -0.00003   0.00000   0.00248   0.00243   2.08789
    A8        2.08195  -0.00481   0.00000  -0.01844  -0.01848   2.06347
    A9        2.08995  -0.00311   0.00000  -0.01172  -0.01176   2.07819
   A10        2.11128   0.00792   0.00000   0.03017   0.03025   2.14153
   A11        2.08549  -0.00393   0.00000  -0.01655  -0.01652   2.06897
   A12        2.11153   0.00404   0.00000   0.02097   0.02095   2.13249
   A13        2.08617  -0.00011   0.00000  -0.00442  -0.00444   2.08173
   A14        2.11061  -0.00221   0.00000  -0.00721  -0.00730   2.10331
   A15        2.08622  -0.00145   0.00000  -0.01202  -0.01198   2.07424
   A16        2.08636   0.00366   0.00000   0.01924   0.01928   2.10563
   A17        2.08120  -0.00449   0.00000  -0.02157  -0.02152   2.05968
   A18        2.11973  -0.00156   0.00000  -0.01248  -0.01250   2.10723
   A19        2.08226   0.00605   0.00000   0.03404   0.03402   2.11628
   A20        2.09231   0.00274   0.00000   0.01271   0.01268   2.10499
   A21        2.09293  -0.00094   0.00000  -0.00374  -0.00372   2.08921
   A22        2.09794  -0.00180   0.00000  -0.00897  -0.00896   2.08899
   A23        1.88425  -0.00705   0.00000  -0.04185  -0.04181   1.84244
   A24        1.93964   0.00098   0.00000   0.00533   0.00535   1.94498
   A25        1.93618   0.00181   0.00000   0.01046   0.01050   1.94668
   A26        1.87971   0.00348   0.00000   0.02240   0.02242   1.90213
   A27        1.88135   0.00313   0.00000   0.02047   0.02055   1.90189
   A28        1.93997  -0.00239   0.00000  -0.01678  -0.01677   1.92320
    D1       -0.04662   0.00023   0.00000   0.00943   0.00944  -0.03718
    D2        3.09498   0.00037   0.00000   0.01476   0.01476   3.10974
    D3       -3.10358  -0.00009   0.00000  -0.00641  -0.00645  -3.11003
    D4       -1.04584   0.00040   0.00000  -0.00164  -0.00165  -1.04750
    D5        1.12185  -0.00066   0.00000  -0.01189  -0.01184   1.11001
    D6       -0.00239  -0.00001   0.00000  -0.00235  -0.00239  -0.00478
    D7       -3.14101  -0.00009   0.00000  -0.00563  -0.00560   3.13658
    D8        3.13795   0.00010   0.00000   0.00676   0.00672  -3.13852
    D9       -0.00067   0.00002   0.00000   0.00347   0.00351   0.00284
   D10        3.13409   0.00026   0.00000   0.01006   0.00998  -3.13911
   D11       -0.00740   0.00019   0.00000   0.00750   0.00743   0.00003
   D12       -0.00750   0.00012   0.00000   0.00450   0.00447  -0.00303
   D13        3.13419   0.00005   0.00000   0.00194   0.00193   3.13612
   D14       -3.13585  -0.00021   0.00000  -0.00859  -0.00866   3.13867
   D15        0.00278  -0.00013   0.00000  -0.00552  -0.00560  -0.00282
   D16        0.00574  -0.00008   0.00000  -0.00361  -0.00362   0.00212
   D17       -3.13881  -0.00001   0.00000  -0.00054  -0.00056  -3.13937
   D18       -3.13409  -0.00014   0.00000  -0.00619  -0.00619  -3.14028
   D19        0.00741  -0.00008   0.00000  -0.00367  -0.00372   0.00369
   D20        0.00449  -0.00008   0.00000  -0.00295  -0.00294   0.00156
   D21       -3.13720  -0.00001   0.00000  -0.00042  -0.00046  -3.13766
   D22        3.13901   0.00008   0.00000   0.00370   0.00371  -3.14046
   D23       -0.00266   0.00008   0.00000   0.00362   0.00363   0.00097
   D24        0.00045   0.00002   0.00000   0.00045   0.00044   0.00089
   D25       -3.14122   0.00002   0.00000   0.00036   0.00036  -3.14086
   D26       -0.00079   0.00003   0.00000   0.00118   0.00117   0.00038
   D27        3.13892   0.00004   0.00000   0.00197   0.00199   3.14091
   D28       -3.13942  -0.00004   0.00000  -0.00184  -0.00190  -3.14132
   D29        0.00029  -0.00002   0.00000  -0.00105  -0.00108  -0.00079
   D30       -0.00229   0.00001   0.00000   0.00043   0.00044  -0.00185
   D31        3.14119  -0.00001   0.00000  -0.00037  -0.00038   3.14081
   D32        3.13937   0.00001   0.00000   0.00051   0.00053   3.13990
   D33       -0.00033  -0.00001   0.00000  -0.00029  -0.00030  -0.00063
         Item               Value     Threshold  Converged?
 Maximum Force            0.017964     0.000450     NO 
 RMS     Force            0.004210     0.000300     NO 
 Maximum Displacement     0.069751     0.001800     NO 
 RMS     Displacement     0.021870     0.001200     NO 
 Predicted change in Energy=-1.816568D-03
 GradGradGradGradGradGradGradGradGradGradGradGradGradGradGradGradGradGrad

                          Input orientation:                          
 ---------------------------------------------------------------------
 Center     Atomic      Atomic             Coordinates (Angstroms)
 Number     Number       Type             X           Y           Z
 ---------------------------------------------------------------------
      1          8           0        1.068065    0.147275   -0.043280
      2          8           0        1.428770   -3.313201   -3.677546
      3          8           0       -0.244838   -2.912190   -4.986626
      4          7           0        0.427580   -2.671140   -3.987124
      5          6           0        0.408220   -0.227189   -1.172989
      6          6           0        0.021803   -1.557800   -3.128033
      7          6           0        0.789369   -1.284268   -1.996047
      8          6           0       -0.724705    0.532457   -1.499804
      9          6           0       -1.103975   -0.818804   -3.467752
     10          6           0       -1.469270    0.236404   -2.635612
     11          6           0        2.205841   -0.611743    0.363535
     12          1           0        1.656334   -1.892412   -1.786543
     13          1           0       -1.008657    1.353542   -0.851503
     14          1           0       -1.676320   -1.059223   -4.352790
     15          1           0       -2.341963    0.831049   -2.875164
     16          1           0        2.543855   -0.156200    1.292512
     17          1           0        1.942397   -1.655648    0.554526
     18          1           0        3.011122   -0.554569   -0.374010
 ---------------------------------------------------------------------
                    Distance matrix (angstroms):
                    1          2          3          4          5
     1  O    0.000000
     2  O    5.031192   0.000000
     3  O    5.959926   2.162283   0.000000
     4  N    4.889538   1.229009   1.228518   0.000000
     5  C    1.360831   4.103389   4.709516   3.727281   0.000000
     6  C    3.676635   2.315805   2.315133   1.463631   2.396255
     7  C    2.437270   2.711613   3.558550   2.453302   1.392880
     8  C    2.341762   4.916208   4.924814   4.216343   1.402636
     9  C    4.168702   3.561015   2.725318   2.458974   2.811170
    10  C    3.628526   4.699357   4.115841   3.725377   2.424696
    11  C    1.426934   4.922606   6.318394   5.131428   2.395878
    12  H    2.746880   2.376199   3.859396   2.637956   2.169610
    13  H    2.533985   5.975455   5.989919   5.300278   2.146998
    14  H    5.249682   3.895890   2.425774   2.675515   3.892135
    15  H    4.485020   5.660129   4.782055   4.601320   3.403053
    16  H    2.013552   5.992624   7.402693   6.219172   3.262617
    17  H    2.091018   4.574027   6.088289   4.894127   2.716340
    18  H    2.092233   4.585547   6.118487   4.920280   2.742380
                    6          7          8          9         10
     6  C    0.000000
     7  C    1.394765   0.000000
     8  C    2.752740   2.416436   0.000000
     9  C    1.388848   2.442811   2.417141   0.000000
    10  C    2.384312   2.796951   1.389994   1.392610   0.000000
    11  C    4.225647   2.833074   3.656408   5.067200   4.818783
    12  H    2.140853   1.079518   3.410506   3.405643   3.875845
    13  H    3.836710   3.391300   1.084022   3.401901   2.154810
    14  H    2.152262   3.418260   3.402726   1.081051   2.161068
    15  H    3.370153   3.879775   2.143897   2.146111   1.082858
    16  H    5.278868   3.894275   4.353706   6.033723   5.629339
    17  H    4.154455   2.823618   4.015159   5.114627   5.039475
    18  H    4.186543   2.845989   4.050363   5.155103   5.080787
                   11         12         13         14         15
    11  C    0.000000
    12  H    2.562207   0.000000
    13  H    3.958745   4.302638   0.000000
    14  H    6.124959   4.287938   4.304208   0.000000
    15  H    5.766571   4.958701   2.479094   2.489897   0.000000
    16  H    1.088472   3.644544   4.415480   7.105966   6.497337
    17  H    1.093443   2.370336   4.443069   6.126384   6.025128
    18  H    1.093490   2.370765   4.475211   6.169074   6.068874
                   16         17         18
    16  H    0.000000
    17  H    1.776153   0.000000
    18  H    1.776044   1.793524   0.000000
 Symmetry turned off by external request.
 Stoichiometry    C7H7NO3
 Framework group  C1[X(C7H7NO3)]
 Deg. of freedom    48
 Full point group                 C1      NOp   1
 Rotational constants (GHZ):           1.9251566           0.8045946           0.5695312
 Standard basis: 6-311G(d) (5D, 7F)
   219 basis functions,   387 primitive gaussians,   230 cartesian basis functions
    40 alpha electrons       40 beta electrons
       nuclear repulsion energy       589.0013297197 Hartrees.
 NAtoms=   18 NActive=   18 NUniq=   18 SFac= 1.00D+00 NAtFMM=   60 NAOKFM=F Big=F
 Integral buffers will be    131072 words long.
 Raffenetti 2 integral format.
 Two-electron integral symmetry is turned off.
 ------------------------------------------------------------------------------
 Polarizable Continuum Model (PCM)
 =================================
 Model                : PCM.
 Atomic radii         : UFF (Universal Force Field).
 Polarization charges : Total charges.
 Charge compensation  : None.
 Solution method      : On-the-fly selection.
 Cavity type          : Scaled VdW (van der Waals Surface) (Alpha=1.100).
 Cavity algorithm     : GePol (No added spheres)
                        Default sphere list used, NSphG=   18.
                        Lebedev-Laikov grids with approx.  5.0 points / Ang**2.
                        Smoothing algorithm: York/Karplus (Gamma=1.0000).
                        Polarization charges: spherical gaussians, with
                                              point-specific exponents (IZeta= 3).
                        Self-potential: point-specific (ISelfS= 7).
                        Self-field    : sphere-specific E.n sum rule (ISelfD= 2).
 1st derivatives      : Analytical E(r).r(x)/FMM algorithm (CHGder, D1EAlg=3).
                        Cavity 1st derivative terms included.
 Solvent              : Water, Eps=  78.355300 Eps(inf)=   1.777849
 ------------------------------------------------------------------------------
 Spheres list:
 ISph  on   Nord     Re0    Alpha      Xe            Ye            Ze
    1   O      1    1.7500  1.100      1.068065      0.147275     -0.043280
    2   O      2    1.7500  1.100      1.428770     -3.313201     -3.677546
    3   O      3    1.7500  1.100     -0.244838     -2.912190     -4.986626
    4   N      4    1.8300  1.100      0.427580     -2.671140     -3.987124
    5   C      5    1.9255  1.100      0.408220     -0.227189     -1.172989
    6   C      6    1.9255  1.100      0.021803     -1.557800     -3.128033
    7   C      7    1.9255  1.100      0.789369     -1.284268     -1.996047
    8   C      8    1.9255  1.100     -0.724705      0.532457     -1.499804
    9   C      9    1.9255  1.100     -1.103975     -0.818804     -3.467752
   10   C     10    1.9255  1.100     -1.469270      0.236404     -2.635612
   11   C     11    1.9255  1.100      2.205841     -0.611743      0.363535
   12   H     12    1.4430  1.100      1.656334     -1.892412     -1.786543
   13   H     13    1.4430  1.100     -1.008657      1.353542     -0.851503
   14   H     14    1.4430  1.100     -1.676320     -1.059223     -4.352790
   15   H     15    1.4430  1.100     -2.341963      0.831049     -2.875164
   16   H     16    1.4430  1.100      2.543855     -0.156200      1.292512
   17   H     17    1.4430  1.100      1.942397     -1.655648      0.554526
   18   H     18    1.4430  1.100      3.011122     -0.554569     -0.374010
 ------------------------------------------------------------------------------
 One-electron integrals computed using PRISM.
 NBasis=   219 RedAO= T EigKep=  2.12D-04  NBF=   219
 NBsUse=   219 1.00D-06 EigRej= -1.00D+00 NBFU=   219
 Initial guess from the checkpoint file:  "ground_state_opt.chk"
 B after Tr=    -0.004103   -0.003462    0.008710
         Rot=    1.000000   -0.000950   -0.000001    0.000170 Ang=  -0.11 deg.
 ExpMin= 1.03D-01 ExpMax= 8.59D+03 ExpMxC= 1.30D+03 IAcc=3 IRadAn=         5 AccDes= 0.00D+00
 Harris functional with IExCor=  402 and IRadAn=       5 diagonalized for initial guess.
 HarFok:  IExCor=  402 AccDes= 0.00D+00 IRadAn=         5 IDoV= 1 UseB2=F ITyADJ=14
 ICtDFT=  3500011 ScaDFX=  1.000000  1.000000  1.000000  1.000000
 FoFCou: FMM=F IPFlag=           0 FMFlag=      100000 FMFlg1=           0
         NFxFlg=           0 DoJE=T BraDBF=F KetDBF=T FulRan=T
         wScrn=  0.000000 ICntrl=       500 IOpCl=  0 I1Cent=   200000004 NGrid=           0
         NMat0=    1 NMatS0=      1 NMatT0=    0 NMatD0=    1 NMtDS0=    0 NMtDT0=    0
 Symmetry not used in FoFCou.
 Keep R1 ints in memory in canonical form, NReq=296340445.
 Requested convergence on RMS density matrix=1.00D-08 within 128 cycles.
 Requested convergence on MAX density matrix=1.00D-06.
 Requested convergence on             energy=1.00D-06.
 No special actions if energy rises.
 Inv3:  Mode=1 IEnd=     7096332.
 Iteration    1 A*A^-1 deviation from unit magnitude is 4.66D-15 for    359.
 Iteration    1 A*A^-1 deviation from orthogonality  is 1.50D-15 for   1444    351.
 Iteration    1 A^-1*A deviation from unit magnitude is 5.11D-15 for    359.
 Iteration    1 A^-1*A deviation from orthogonality  is 1.26D-15 for   1289    487.
 Error on total polarization charges =  0.00847
 SCF Done:  E(RB3LYP) =  -551.416189369     A.U. after   11 cycles
            NFock= 11  Conv=0.56D-08     -V/T= 2.0033
 D1PCM: PCM CHGder 1st derivatives, ID1Alg=3 FixD1E=F DoIter=F DoCFld=F I1PDM=0.
 Calling FoFJK, ICntrl=      2127 FMM=F ISym2X=0 I1Cent= 0 IOpClX= 0 NMat=1 NMatS=1 NMatT=0.
 -------------------------------------------------------------------
 Center     Atomic                   Forces (Hartrees/Bohr)
 Number     Number              X              Y              Z
 -------------------------------------------------------------------
      1        8          -0.002594319   -0.001661599   -0.003904176
      2        8          -0.001484751    0.001361284    0.000840759
      3        8          -0.000112764    0.001178838    0.002050485
      4        7           0.002837924   -0.005014430   -0.005139415
      5        6           0.001696216    0.002673313    0.003878687
      6        6          -0.001844126    0.003545891    0.002774743
      7        6           0.002003173   -0.001731481    0.000270663
      8        6          -0.002615450    0.000707740   -0.001963047
      9        6          -0.001282944   -0.000834793   -0.002278873
     10        6           0.001858775    0.000446771    0.002536038
     11        6           0.002044823    0.000474734    0.002808298
     12        1          -0.000232613   -0.000156655   -0.000260492
     13        1           0.000569186   -0.000208942    0.000400717
     14        1           0.000713372   -0.000548454    0.000112855
     15        1          -0.000400833    0.000310837   -0.000067034
     16        1          -0.000299445    0.000016561   -0.000467248
     17        1          -0.000152692   -0.000050763   -0.000917511
     18        1          -0.000703530   -0.000508853   -0.000675447
 -------------------------------------------------------------------
 Cartesian Forces:  Max     0.005139415 RMS     0.001904177

 GradGradGradGradGradGradGradGradGradGradGradGradGradGradGradGradGradGrad
 Berny optimization.
 Using GEDIIS/GDIIS optimizer.
 FormGI is forming the generalized inverse of G from B-inverse, IUseBI=4.
 Internal  Forces:  Max     0.003925256 RMS     0.000888487
 Search for a local minimum.
 Step number   2 out of a maximum of   89
 All quantities printed in internal units (Hartrees-Bohrs-Radians)
 Mixed Optimization -- En-DIIS/RFO-DIIS
 Update second derivatives using D2CorX and points    1    2
 DE= -1.94D-03 DEPred=-1.82D-03 R= 1.07D+00
 TightC=F SS=  1.41D+00  RLast= 1.17D-01 DXNew= 5.0454D-01 3.5156D-01
 Trust test= 1.07D+00 RLast= 1.17D-01 DXMaxT set to 3.52D-01
 ITU=  1  0
 Use linear search instead of GDIIS.
     Eigenvalues ---    0.00794   0.00798   0.01376   0.01697   0.02067
     Eigenvalues ---    0.02102   0.02112   0.02114   0.02119   0.02129
     Eigenvalues ---    0.02135   0.02144   0.02152   0.09793   0.10690
     Eigenvalues ---    0.15084   0.16000   0.16000   0.16000   0.16000
     Eigenvalues ---    0.16000   0.16305   0.21603   0.22577   0.23485
     Eigenvalues ---    0.24699   0.25000   0.25000   0.25000   0.26406
     Eigenvalues ---    0.34152   0.34211   0.34271   0.34856   0.35003
     Eigenvalues ---    0.35115   0.35340   0.37196   0.41610   0.41955
     Eigenvalues ---    0.42133   0.45243   0.45626   0.45956   0.47494
     Eigenvalues ---    0.50815   0.85635   0.87288
 RFO step:  Lambda=-3.20508178D-04 EMin= 7.94064347D-03
 Quartic linear search produced a step of  0.08339.
 Iteration  1 RMS(Cart)=  0.01453169 RMS(Int)=  0.00065254
 Iteration  2 RMS(Cart)=  0.00055828 RMS(Int)=  0.00040776
 Iteration  3 RMS(Cart)=  0.00000047 RMS(Int)=  0.00040776
 Variable       Old X    -DE/DX   Delta X   Delta X   Delta X     New X
                                 (Linear)    (Quad)   (Total)
    R1        2.57160  -0.00393  -0.00110  -0.00834  -0.00944   2.56216
    R2        2.69651   0.00097   0.00050   0.00252   0.00303   2.69954
    R3        2.32249  -0.00171  -0.00164  -0.00224  -0.00388   2.31862
    R4        2.32156  -0.00184  -0.00171  -0.00240  -0.00411   2.31745
    R5        2.76586   0.00354  -0.00067   0.01062   0.00995   2.77581
    R6        2.63216   0.00128  -0.00022   0.00305   0.00283   2.63499
    R7        2.65060   0.00113   0.00052   0.00267   0.00319   2.65379
    R8        2.63572   0.00037  -0.00139   0.00094  -0.00045   2.63528
    R9        2.62454   0.00004  -0.00185   0.00002  -0.00182   2.62272
   R10        2.03999  -0.00015  -0.00087  -0.00051  -0.00138   2.03862
   R11        2.62671  -0.00128  -0.00111  -0.00319  -0.00431   2.62240
   R12        2.04850  -0.00007  -0.00072  -0.00025  -0.00097   2.04753
   R13        2.63165   0.00153  -0.00019   0.00344   0.00325   2.63490
   R14        2.04289  -0.00035  -0.00107  -0.00114  -0.00221   2.04068
   R15        2.04630   0.00051  -0.00075   0.00153   0.00077   2.04708
   R16        2.05691  -0.00049  -0.00084  -0.00158  -0.00242   2.05450
   R17        2.06631  -0.00008  -0.00031  -0.00026  -0.00057   2.06574
   R18        2.06640  -0.00009  -0.00026  -0.00028  -0.00055   2.06585
    A1        2.06796   0.00024   0.00250   0.00115   0.00365   2.07161
    A2        2.15114   0.00210  -0.00180   0.00929   0.00539   2.15653
    A3        2.06620  -0.00087   0.00092  -0.00346  -0.00462   2.06158
    A4        2.06582  -0.00122   0.00088  -0.00498  -0.00618   2.05963
    A5        2.17328  -0.00073  -0.00164  -0.00334  -0.00498   2.16830
    A6        2.02200   0.00061   0.00144   0.00259   0.00403   2.02603
    A7        2.08789   0.00012   0.00020   0.00077   0.00096   2.08885
    A8        2.06347  -0.00041  -0.00154  -0.00205  -0.00360   2.05987
    A9        2.07819  -0.00063  -0.00098  -0.00295  -0.00394   2.07425
   A10        2.14153   0.00104   0.00252   0.00500   0.00754   2.14907
   A11        2.06897  -0.00089  -0.00138  -0.00386  -0.00523   2.06373
   A12        2.13249   0.00080   0.00175   0.00432   0.00606   2.13855
   A13        2.08173   0.00010  -0.00037  -0.00045  -0.00083   2.08090
   A14        2.10331   0.00002  -0.00061  -0.00010  -0.00072   2.10259
   A15        2.07424  -0.00076  -0.00100  -0.00500  -0.00600   2.06825
   A16        2.10563   0.00073   0.00161   0.00511   0.00672   2.11235
   A17        2.05968  -0.00081  -0.00179  -0.00406  -0.00585   2.05383
   A18        2.10723  -0.00045  -0.00104  -0.00378  -0.00483   2.10240
   A19        2.11628   0.00126   0.00284   0.00784   0.01067   2.12695
   A20        2.10499   0.00052   0.00106   0.00226   0.00331   2.10830
   A21        2.08921  -0.00032  -0.00031  -0.00153  -0.00184   2.08737
   A22        2.08899  -0.00020  -0.00075  -0.00073  -0.00147   2.08751
   A23        1.84244   0.00029  -0.00349   0.00398   0.00050   1.84293
   A24        1.94498  -0.00059   0.00045  -0.00501  -0.00460   1.94039
   A25        1.94668  -0.00085   0.00088  -0.00692  -0.00608   1.94060
   A26        1.90213   0.00082   0.00187   0.00780   0.00967   1.91179
   A27        1.90189   0.00084   0.00171   0.00765   0.00936   1.91126
   A28        1.92320  -0.00039  -0.00140  -0.00630  -0.00775   1.91545
    D1       -0.03718   0.00019   0.00079   0.00915   0.00993  -0.02724
    D2        3.10974   0.00010   0.00123   0.00470   0.00593   3.11567
    D3       -3.11003  -0.00017  -0.00054  -0.01014  -0.01069  -3.12072
    D4       -1.04750   0.00067  -0.00014  -0.00108  -0.00125  -1.04875
    D5        1.11001  -0.00089  -0.00099  -0.01803  -0.01897   1.09103
    D6       -0.00478   0.00045  -0.00020   0.05914   0.05883   0.05405
    D7        3.13658   0.00045  -0.00047   0.05962   0.05905  -3.08756
    D8       -3.13852  -0.00044   0.00056  -0.05761  -0.05694   3.08772
    D9        0.00284  -0.00043   0.00029  -0.05713  -0.05673  -0.05389
   D10       -3.13911  -0.00004   0.00083  -0.00223  -0.00140  -3.14051
   D11        0.00003  -0.00002   0.00062  -0.00100  -0.00038  -0.00035
   D12       -0.00303   0.00005   0.00037   0.00238   0.00275  -0.00028
   D13        3.13612   0.00007   0.00016   0.00361   0.00377   3.13988
   D14        3.13867   0.00004  -0.00072   0.00255   0.00183   3.14050
   D15       -0.00282   0.00003  -0.00047   0.00197   0.00150  -0.00132
   D16        0.00212  -0.00003  -0.00030  -0.00165  -0.00196   0.00016
   D17       -3.13937  -0.00004  -0.00005  -0.00224  -0.00229   3.14153
   D18       -3.14028  -0.00003  -0.00052  -0.00106  -0.00158   3.14133
   D19        0.00369  -0.00005  -0.00031  -0.00226  -0.00257   0.00112
   D20        0.00156  -0.00003  -0.00024  -0.00156  -0.00180  -0.00024
   D21       -3.13766  -0.00005  -0.00004  -0.00275  -0.00279  -3.14045
   D22       -3.14046  -0.00001   0.00031  -0.00057  -0.00026  -3.14072
   D23        0.00097   0.00000   0.00030  -0.00007   0.00023   0.00121
   D24        0.00089  -0.00000   0.00004  -0.00007  -0.00003   0.00085
   D25       -3.14086   0.00001   0.00003   0.00043   0.00046  -3.14040
   D26        0.00038   0.00000   0.00010  -0.00000   0.00010   0.00048
   D27        3.14091   0.00000   0.00017   0.00011   0.00028   3.14118
   D28       -3.14132   0.00001  -0.00016   0.00060   0.00044  -3.14088
   D29       -0.00079   0.00001  -0.00009   0.00071   0.00062  -0.00018
   D30       -0.00185   0.00002   0.00004   0.00086   0.00090  -0.00096
   D31        3.14081   0.00002  -0.00003   0.00075   0.00071   3.14152
   D32        3.13990   0.00001   0.00004   0.00035   0.00040   3.14029
   D33       -0.00063   0.00000  -0.00002   0.00024   0.00022  -0.00041
         Item               Value     Threshold  Converged?
 Maximum Force            0.003925     0.000450     NO 
 RMS     Force            0.000888     0.000300     NO 
 Maximum Displacement     0.045885     0.001800     NO 
 RMS     Displacement     0.014588     0.001200     NO 
 Predicted change in Energy=-1.736010D-04
 GradGradGradGradGradGradGradGradGradGradGradGradGradGradGradGradGradGrad

                          Input orientation:                          
 ---------------------------------------------------------------------
 Center     Atomic      Atomic             Coordinates (Angstroms)
 Number     Number       Type             X           Y           Z
 ---------------------------------------------------------------------
      1          8           0        1.060449    0.139314   -0.039999
      2          8           0        1.409413   -3.330023   -3.653264
      3          8           0       -0.260135   -2.925370   -4.965442
      4          7           0        0.445127   -2.654882   -3.999336
      5          6           0        0.406243   -0.225403   -1.170169
      6          6           0        0.030284   -1.544519   -3.131778
      7          6           0        0.795699   -1.278623   -1.996811
      8          6           0       -0.730988    0.531037   -1.496711
      9          6           0       -1.097386   -0.811864   -3.474999
     10          6           0       -1.468499    0.237287   -2.634930
     11          6           0        2.206470   -0.612757    0.362171
     12          1           0        1.661608   -1.888159   -1.790770
     13          1           0       -1.016332    1.345005   -0.840947
     14          1           0       -1.659253   -1.056264   -4.364224
     15          1           0       -2.343546    0.829749   -2.873155
     16          1           0        2.544246   -0.157133    1.289698
     17          1           0        1.948558   -1.659724    0.541886
     18          1           0        3.001672   -0.551332   -0.385471
 ---------------------------------------------------------------------
                    Distance matrix (angstroms):
                    1          2          3          4          5
     1  O    0.000000
     2  O    5.021330   0.000000
     3  O    5.949472   2.161700   0.000000
     4  N    4.884926   1.226959   1.226344   0.000000
     5  C    1.355834   4.100095   4.705101   3.729352   0.000000
     6  C    3.668192   2.315592   2.313745   1.468897   2.393601
     7  C    2.430998   2.707161   3.555184   2.455015   1.394376
     8  C    2.341944   4.913229   4.919405   4.218585   1.404324
     9  C    4.166559   3.557659   2.718329   2.459876   2.813730
    10  C    3.624754   4.695219   4.110210   3.726689   2.423689
    11  C    1.428537   4.913507   6.309974   5.127899   2.395605
    12  H    2.745403   2.368851   3.853238   2.635423   2.173901
    13  H    2.531448   5.970699   5.984930   5.301922   2.144362
    14  H    5.246437   3.884862   2.410923   2.667796   3.893403
    15  H    4.482260   5.656586   4.776942   4.603003   3.402183
    16  H    2.014355   5.982303   7.392865   6.214413   3.259855
    17  H    2.088987   4.547512   6.067194   4.886036   2.714249
    18  H    2.089184   4.575466   6.103407   4.901109   2.730976
                    6          7          8          9         10
     6  C    0.000000
     7  C    1.394529   0.000000
     8  C    2.749711   2.419864   0.000000
     9  C    1.387884   2.446768   2.418936   0.000000
    10  C    2.380765   2.798530   1.387716   1.394331   0.000000
    11  C    4.220384   2.828153   3.659558   5.067443   4.817737
    12  H    2.139535   1.078789   3.415186   3.406917   3.876558
    13  H    3.833101   3.391593   1.083509   3.405419   2.156355
    14  H    2.147522   3.417729   3.406439   1.079883   2.167975
    15  H    3.367359   3.881761   2.141068   2.147097   1.083268
    16  H    5.272029   3.887968   4.354859   6.032618   5.626756
    17  H    4.145945   2.814126   4.016874   5.111947   5.036576
    18  H    4.166266   2.826957   4.042169   5.139585   5.066006
                   11         12         13         14         15
    11  C    0.000000
    12  H    2.560992   0.000000
    13  H    3.958128   4.304286   0.000000
    14  H    6.122035   4.282853   4.311950   0.000000
    15  H    5.766351   4.959823   2.481301   2.499717   0.000000
    16  H    1.087194   3.642085   4.412910   7.102440   6.495674
    17  H    1.093140   2.361315   4.441982   6.119671   6.023466
    18  H    1.093201   2.357487   4.466308   6.148955   6.055354
                   16         17         18
    16  H    0.000000
    17  H    1.780968   0.000000
    18  H    1.780680   1.788176   0.000000
 Symmetry turned off by external request.
 Stoichiometry    C7H7NO3
 Framework group  C1[X(C7H7NO3)]
 Deg. of freedom    48
 Full point group                 C1      NOp   1
 Rotational constants (GHZ):           1.9242491           0.8067997           0.5705821
 Standard basis: 6-311G(d) (5D, 7F)
   219 basis functions,   387 primitive gaussians,   230 cartesian basis functions
    40 alpha electrons       40 beta electrons
       nuclear repulsion energy       589.3439235337 Hartrees.
 NAtoms=   18 NActive=   18 NUniq=   18 SFac= 1.00D+00 NAtFMM=   60 NAOKFM=F Big=F
 Integral buffers will be    131072 words long.
 Raffenetti 2 integral format.
 Two-electron integral symmetry is turned off.
 ------------------------------------------------------------------------------
 Polarizable Continuum Model (PCM)
 =================================
 Model                : PCM.
 Atomic radii         : UFF (Universal Force Field).
 Polarization charges : Total charges.
 Charge compensation  : None.
 Solution method      : On-the-fly selection.
 Cavity type          : Scaled VdW (van der Waals Surface) (Alpha=1.100).
 Cavity algorithm     : GePol (No added spheres)
                        Default sphere list used, NSphG=   18.
                        Lebedev-Laikov grids with approx.  5.0 points / Ang**2.
                        Smoothing algorithm: York/Karplus (Gamma=1.0000).
                        Polarization charges: spherical gaussians, with
                                              point-specific exponents (IZeta= 3).
                        Self-potential: point-specific (ISelfS= 7).
                        Self-field    : sphere-specific E.n sum rule (ISelfD= 2).
 1st derivatives      : Analytical E(r).r(x)/FMM algorithm (CHGder, D1EAlg=3).
                        Cavity 1st derivative terms included.
 Solvent              : Water, Eps=  78.355300 Eps(inf)=   1.777849
 ------------------------------------------------------------------------------
 Spheres list:
 ISph  on   Nord     Re0    Alpha      Xe            Ye            Ze
    1   O      1    1.7500  1.100      1.060449      0.139314     -0.039999
    2   O      2    1.7500  1.100      1.409413     -3.330023     -3.653264
    3   O      3    1.7500  1.100     -0.260135     -2.925370     -4.965442
    4   N      4    1.8300  1.100      0.445127     -2.654882     -3.999336
    5   C      5    1.9255  1.100      0.406243     -0.225403     -1.170169
    6   C      6    1.9255  1.100      0.030284     -1.544519     -3.131778
    7   C      7    1.9255  1.100      0.795699     -1.278623     -1.996811
    8   C      8    1.9255  1.100     -0.730988      0.531037     -1.496711
    9   C      9    1.9255  1.100     -1.097386     -0.811864     -3.474999
   10   C     10    1.9255  1.100     -1.468499      0.237287     -2.634930
   11   C     11    1.9255  1.100      2.206470     -0.612757      0.362171
   12   H     12    1.4430  1.100      1.661608     -1.888159     -1.790770
   13   H     13    1.4430  1.100     -1.016332      1.345005     -0.840947
   14   H     14    1.4430  1.100     -1.659253     -1.056264     -4.364224
   15   H     15    1.4430  1.100     -2.343546      0.829749     -2.873155
   16   H     16    1.4430  1.100      2.544246     -0.157133      1.289698
   17   H     17    1.4430  1.100      1.948558     -1.659724      0.541886
   18   H     18    1.4430  1.100      3.001672     -0.551332     -0.385471
 ------------------------------------------------------------------------------
 One-electron integrals computed using PRISM.
 NBasis=   219 RedAO= T EigKep=  2.14D-04  NBF=   219
 NBsUse=   219 1.00D-06 EigRej= -1.00D+00 NBFU=   219
 Initial guess from the checkpoint file:  "ground_state_opt.chk"
 B after Tr=    -0.001501    0.007975    0.001329
         Rot=    0.999999    0.000835    0.000458    0.001214 Ang=   0.18 deg.
 ExpMin= 1.03D-01 ExpMax= 8.59D+03 ExpMxC= 1.30D+03 IAcc=3 IRadAn=         5 AccDes= 0.00D+00
 Harris functional with IExCor=  402 and IRadAn=       5 diagonalized for initial guess.
 HarFok:  IExCor=  402 AccDes= 0.00D+00 IRadAn=         5 IDoV= 1 UseB2=F ITyADJ=14
 ICtDFT=  3500011 ScaDFX=  1.000000  1.000000  1.000000  1.000000
 FoFCou: FMM=F IPFlag=           0 FMFlag=      100000 FMFlg1=           0
         NFxFlg=           0 DoJE=T BraDBF=F KetDBF=T FulRan=T
         wScrn=  0.000000 ICntrl=       500 IOpCl=  0 I1Cent=   200000004 NGrid=           0
         NMat0=    1 NMatS0=      1 NMatT0=    0 NMatD0=    1 NMtDS0=    0 NMtDT0=    0
 Symmetry not used in FoFCou.
 Keep R1 ints in memory in canonical form, NReq=296340445.
 Requested convergence on RMS density matrix=1.00D-08 within 128 cycles.
 Requested convergence on MAX density matrix=1.00D-06.
 Requested convergence on             energy=1.00D-06.
 No special actions if energy rises.
 Inv3:  Mode=1 IEnd=     7013523.
 Iteration    1 A*A^-1 deviation from unit magnitude is 4.66D-15 for    367.
 Iteration    1 A*A^-1 deviation from orthogonality  is 2.40D-15 for   1527    310.
 Iteration    1 A^-1*A deviation from unit magnitude is 4.66D-15 for    353.
 Iteration    1 A^-1*A deviation from orthogonality  is 1.98D-15 for   1015    813.
 Error on total polarization charges =  0.00848
 SCF Done:  E(RB3LYP) =  -551.415666287     A.U. after   11 cycles
            NFock= 11  Conv=0.52D-08     -V/T= 2.0032
 D1PCM: PCM CHGder 1st derivatives, ID1Alg=3 FixD1E=F DoIter=F DoCFld=F I1PDM=0.
 Calling FoFJK, ICntrl=      2127 FMM=F ISym2X=0 I1Cent= 0 IOpClX= 0 NMat=1 NMatS=1 NMatT=0.
 -------------------------------------------------------------------
 Center     Atomic                   Forces (Hartrees/Bohr)
 Number     Number              X              Y              Z
 -------------------------------------------------------------------
      1        8          -0.001282494    0.000158716   -0.000487252
      2        8           0.004110719    0.003097051   -0.003062283
      3        8           0.002964356    0.003271414   -0.004118653
      4        7          -0.009034817   -0.011578296    0.007923705
      5        6           0.001105555    0.000170984    0.001561996
      6        6           0.001681989    0.003971411   -0.000687551
      7        6           0.000121020    0.000326820   -0.000686034
      8        6           0.000003988   -0.000269804   -0.000575508
      9        6           0.000470767    0.000394863   -0.000229533
     10        6          -0.000275867    0.000175754    0.000379468
     11        6           0.000420136   -0.000016857    0.000040277
     12        1           0.000170568   -0.000065247    0.000008029
     13        1          -0.000022876    0.000205670    0.000193894
     14        1          -0.000187410    0.000083338   -0.000289696
     15        1          -0.000323162    0.000166435   -0.000043174
     16        1           0.000087123   -0.000044313   -0.000009594
     17        1          -0.000082812   -0.000087438    0.000132025
     18        1           0.000073218    0.000039497   -0.000050114
 -------------------------------------------------------------------
 Cartesian Forces:  Max     0.011578296 RMS     0.002644853

 GradGradGradGradGradGradGradGradGradGradGradGradGradGradGradGradGradGrad
 Berny optimization.
 Using GEDIIS/GDIIS optimizer.
 FormGI is forming the generalized inverse of G from B-inverse, IUseBI=4.
 Internal  Forces:  Max     0.006172458 RMS     0.001440368
 Search for a local minimum.
 Step number   3 out of a maximum of   89
 All quantities printed in internal units (Hartrees-Bohrs-Radians)
 Mixed Optimization -- RFO/linear search
 Update second derivatives using D2CorX and points    1    3    2
 DE=  5.23D-04 DEPred=-1.74D-04 R=-3.01D+00
 Trust test=-3.01D+00 RLast= 1.23D-01 DXMaxT set to 1.76D-01
 ITU= -1  1  0
 Use linear search instead of GDIIS.
     Eigenvalues ---    0.00794   0.01328   0.01700   0.02046   0.02072
     Eigenvalues ---    0.02103   0.02113   0.02119   0.02127   0.02134
     Eigenvalues ---    0.02144   0.02152   0.06097   0.10673   0.10761
     Eigenvalues ---    0.13513   0.16000   0.16000   0.16000   0.16000
     Eigenvalues ---    0.16005   0.16282   0.20109   0.22210   0.23517
     Eigenvalues ---    0.24605   0.25000   0.25000   0.25032   0.26243
     Eigenvalues ---    0.32577   0.34200   0.34231   0.34538   0.34993
     Eigenvalues ---    0.35120   0.35255   0.35682   0.41363   0.41771
     Eigenvalues ---    0.42144   0.44577   0.45529   0.45883   0.46821
     Eigenvalues ---    0.49135   0.85440   0.87289
 RFO step:  Lambda=-4.81709604D-04 EMin= 7.93826345D-03
 Quartic linear search produced a step of -0.80007.
 Iteration  1 RMS(Cart)=  0.01675568 RMS(Int)=  0.00065013
 Iteration  2 RMS(Cart)=  0.00068914 RMS(Int)=  0.00016128
 Iteration  3 RMS(Cart)=  0.00000068 RMS(Int)=  0.00016128
 Variable       Old X    -DE/DX   Delta X   Delta X   Delta X     New X
                                 (Linear)    (Quad)   (Total)
    R1        2.56216  -0.00068   0.00756  -0.02004  -0.01249   2.54967
    R2        2.69954   0.00050  -0.00242   0.00644   0.00402   2.70356
    R3        2.31862   0.00066   0.00310  -0.00684  -0.00374   2.31488
    R4        2.31745   0.00082   0.00329  -0.00725  -0.00396   2.31350
    R5        2.77581   0.00294  -0.00796   0.02422   0.01626   2.79207
    R6        2.63499   0.00073  -0.00226   0.00676   0.00450   2.63949
    R7        2.65379   0.00030  -0.00255   0.00667   0.00412   2.65790
    R8        2.63528   0.00050   0.00036   0.00056   0.00092   2.63620
    R9        2.62272   0.00051   0.00146  -0.00204  -0.00058   2.62214
   R10        2.03862   0.00018   0.00110  -0.00212  -0.00101   2.03760
   R11        2.62240   0.00000   0.00345  -0.00845  -0.00500   2.61740
   R12        2.04753   0.00028   0.00078  -0.00130  -0.00052   2.04701
   R13        2.63490   0.00039  -0.00260   0.00751   0.00491   2.63981
   R14        2.04068   0.00032   0.00177  -0.00367  -0.00191   2.03878
   R15        2.04708   0.00036  -0.00062   0.00263   0.00201   2.04909
   R16        2.05450  -0.00000   0.00193  -0.00453  -0.00260   2.05190
   R17        2.06574   0.00012   0.00046  -0.00089  -0.00043   2.06530
   R18        2.06585   0.00009   0.00044  -0.00090  -0.00046   2.06539
    A1        2.07161   0.00006  -0.00292   0.00575   0.00283   2.07444
    A2        2.15653  -0.00023  -0.00431   0.01819   0.01305   2.16958
    A3        2.06158   0.00061   0.00370  -0.00579  -0.00291   2.05867
    A4        2.05963   0.00085   0.00495  -0.00899  -0.00487   2.05476
    A5        2.16830   0.00084   0.00398  -0.00875  -0.00477   2.16353
    A6        2.02603  -0.00047  -0.00323   0.00715   0.00392   2.02995
    A7        2.08885  -0.00037  -0.00077   0.00161   0.00084   2.08969
    A8        2.05987   0.00013   0.00288  -0.00639  -0.00351   2.05636
    A9        2.07425   0.00010   0.00315  -0.00769  -0.00454   2.06971
   A10        2.14907  -0.00023  -0.00603   0.01408   0.00805   2.15712
   A11        2.06373   0.00018   0.00419  -0.01006  -0.00587   2.05786
   A12        2.13855  -0.00009  -0.00485   0.01163   0.00678   2.14533
   A13        2.08090  -0.00009   0.00066  -0.00157  -0.00091   2.07999
   A14        2.10259   0.00040   0.00058  -0.00069  -0.00012   2.10247
   A15        2.06825  -0.00026   0.00480  -0.01252  -0.00772   2.06052
   A16        2.11235  -0.00014  -0.00538   0.01322   0.00784   2.12019
   A17        2.05383   0.00013   0.00468  -0.01109  -0.00641   2.04742
   A18        2.10240   0.00006   0.00386  -0.00956  -0.00570   2.09670
   A19        2.12695  -0.00019  -0.00854   0.02065   0.01211   2.13907
   A20        2.10830  -0.00011  -0.00265   0.00616   0.00351   2.11181
   A21        2.08737   0.00005   0.00147  -0.00370  -0.00223   2.08515
   A22        2.08751   0.00007   0.00118  -0.00246  -0.00128   2.08623
   A23        1.84293   0.00013  -0.00040   0.00437   0.00397   1.84690
   A24        1.94039  -0.00005   0.00368  -0.01060  -0.00697   1.93342
   A25        1.94060  -0.00001   0.00486  -0.01422  -0.00939   1.93121
   A26        1.91179  -0.00008  -0.00773   0.01935   0.01161   1.92340
   A27        1.91126  -0.00007  -0.00749   0.01884   0.01134   1.92260
   A28        1.91545   0.00008   0.00620  -0.01568  -0.00955   1.90590
    D1       -0.02724   0.00013  -0.00795   0.02231   0.01436  -0.01288
    D2        3.11567   0.00015  -0.00474   0.01340   0.00865   3.12432
    D3       -3.12072  -0.00007   0.00855  -0.02396  -0.01541  -3.13613
    D4       -1.04875  -0.00011   0.00100  -0.00384  -0.00288  -1.05163
    D5        1.09103  -0.00005   0.01518  -0.04156  -0.02633   1.06471
    D6        0.05405  -0.00602  -0.04707  -0.01445  -0.06152  -0.00746
    D7       -3.08756  -0.00615  -0.04724  -0.01529  -0.06252   3.13310
    D8        3.08772   0.00617   0.04556   0.02035   0.06590  -3.12956
    D9       -0.05389   0.00604   0.04539   0.01951   0.06489   0.01100
   D10       -3.14051  -0.00011   0.00112  -0.00477  -0.00364   3.13903
   D11       -0.00035   0.00003   0.00030  -0.00098  -0.00067  -0.00101
   D12       -0.00028  -0.00013  -0.00220   0.00445   0.00225   0.00197
   D13        3.13988   0.00002  -0.00301   0.00823   0.00523  -3.13807
   D14        3.14050  -0.00002  -0.00147   0.00432   0.00287  -3.13982
   D15       -0.00132  -0.00000  -0.00120   0.00360   0.00241   0.00109
   D16        0.00016  -0.00001   0.00157  -0.00415  -0.00258  -0.00242
   D17        3.14153   0.00001   0.00183  -0.00486  -0.00304   3.13849
   D18        3.14133   0.00015   0.00126  -0.00179  -0.00053   3.14080
   D19        0.00112   0.00001   0.00206  -0.00546  -0.00340  -0.00228
   D20       -0.00024   0.00028   0.00144  -0.00091   0.00053   0.00029
   D21       -3.14045   0.00014   0.00223  -0.00458  -0.00234   3.14040
   D22       -3.14072  -0.00015   0.00021  -0.00208  -0.00186   3.14060
   D23        0.00121  -0.00002  -0.00019   0.00027   0.00008   0.00128
[...]
 ! A24   A(1,11,17)            111.13           -DE/DX =    0.0                 !
 ! A25   A(1,11,18)            111.1517         -DE/DX =    0.0                 !
 ! A26   A(16,11,17)           109.51           -DE/DX =    0.0                 !
 ! A27   A(16,11,18)           109.502          -DE/DX =    0.0                 !
 ! A28   A(17,11,18)           109.8338         -DE/DX =    0.0                 !
 ! D1    D(11,1,5,7)            -0.3291         -DE/DX =    0.0                 !
 ! D2    D(11,1,5,8)           179.6808         -DE/DX =    0.0                 !
 ! D3    D(5,1,11,16)          180.0391         -DE/DX =    0.0                 !
 ! D4    D(5,1,11,17)          -61.2885         -DE/DX =    0.0                 !
 ! D5    D(5,1,11,18)           61.3646         -DE/DX =    0.0                 !
 ! D6    D(2,4,6,7)              0.1414         -DE/DX =    0.0                 !
 ! D7    D(2,4,6,9)           -179.8474         -DE/DX =    0.0                 !
 ! D8    D(3,4,6,7)           -179.8622         -DE/DX =    0.0                 !
 ! D9    D(3,4,6,9)              0.1489         -DE/DX =    0.0                 !
 ! D10   D(1,5,7,6)            179.9877         -DE/DX =    0.0                 !
 ! D11   D(1,5,7,12)            -0.0103         -DE/DX =    0.0                 !
 ! D12   D(8,5,7,6)             -0.0226         -DE/DX =    0.0                 !
 ! D13   D(8,5,7,12)           179.9794         -DE/DX =    0.0                 !
 ! D14   D(1,5,8,10)          -179.991          -DE/DX =    0.0                 !
 ! D15   D(1,5,8,13)            -0.0034         -DE/DX =    0.0                 !
 ! D16   D(7,5,8,10)             0.0184         -DE/DX =    0.0                 !
 ! D17   D(7,5,8,13)          -179.994          -DE/DX =    0.0                 !
 ! D18   D(4,6,7,5)           -179.9777         -DE/DX =    0.0                 !
 ! D19   D(4,6,7,12)             0.0203         -DE/DX =    0.0                 !
 ! D20   D(9,6,7,5)              0.0106         -DE/DX =    0.0                 !
 ! D21   D(9,6,7,12)          -179.9913         -DE/DX =    0.0                 !
 ! D22   D(4,6,9,10)           179.9944         -DE/DX =    0.0                 !
 ! D23   D(4,6,9,14)             0.0076         -DE/DX =    0.0                 !
 ! D24   D(7,6,9,10)             0.0062         -DE/DX =    0.0                 !
 ! D25   D(7,6,9,14)          -179.9806         -DE/DX =    0.0                 !
 ! D26   D(5,8,10,9)            -0.0012         -DE/DX =    0.0                 !
 ! D27   D(5,8,10,15)          179.9784         -DE/DX =    0.0                 !
 ! D28   D(13,8,10,9)         -179.9885         -DE/DX =    0.0                 !
 ! D29   D(13,8,10,15)          -0.0089         -DE/DX =    0.0                 !
 ! D30   D(6,9,10,8)            -0.0108         -DE/DX =    0.0                 !
 ! D31   D(6,9,10,15)         -179.9905         -DE/DX =    0.0                 !
 ! D32   D(14,9,10,8)          179.9758         -DE/DX =    0.0                 !
 ! D33   D(14,9,10,15)          -0.0038         -DE/DX =    0.0                 !
 --------------------------------------------------------------------------------
 GradGradGradGradGradGradGradGradGradGradGradGradGradGradGradGradGradGrad

                          Input orientation:                          
 ---------------------------------------------------------------------
 Center     Atomic      Atomic             Coordinates (Angstroms)
 Number     Number       Type             X           Y           Z
 ---------------------------------------------------------------------
      1          8           0        1.053077    0.133697   -0.033524
      2          8           0        1.422440   -3.320923   -3.669750
      3          8           0       -0.239160   -2.905381   -4.990767
      4          7           0        0.430912   -2.673715   -3.990342
      5          6           0        0.402874   -0.231458   -1.164207
      6          6           0        0.020797   -1.553432   -3.124002
      7          6           0        0.786234   -1.290090   -1.988298
      8          6           0       -0.729327    0.530977   -1.497223
      9          6           0       -1.100973   -0.814308   -3.472510
     10          6           0       -1.467242    0.240020   -2.635650
     11          6           0        2.209196   -0.608227    0.362515
     12          1           0        1.646976   -1.906355   -1.778615
     13          1           0       -1.010200    1.349097   -0.843888
     14          1           0       -1.663025   -1.056423   -4.362869
     15          1           0       -2.337991    0.838317   -2.877151
     16          1           0        2.555545   -0.141943    1.281527
     17          1           0        1.958736   -1.654691    0.555925
     18          1           0        2.994758   -0.548822   -0.395421
 ---------------------------------------------------------------------
                    Distance matrix (angstroms):
                    1          2          3          4          5
     1  O    0.000000
     2  O    5.029211   0.000000
     3  O    5.956520   2.163025   0.000000
     4  N    4.891325   1.226697   1.226180   0.000000
     5  C    1.354454   4.106344   4.712180   3.735297   0.000000
     6  C    3.669204   2.320877   2.319517   1.474372   2.394660
     7  C    2.433005   2.712254   3.560256   2.459441   1.395276
     8  C    2.340344   4.918040   4.924802   4.222777   1.405022
     9  C    4.167166   3.562252   2.724044   2.464187   2.815943
    10  C    3.624137   4.701057   4.116833   3.732027   2.425854
    11  C    1.429654   4.923095   6.318939   5.135747   2.394919
    12  H    2.749521   2.372301   3.856616   2.638065   2.174987
    13  H    2.528043   5.975979   5.990968   5.306599   2.144186
    14  H    5.247554   3.889534   2.416671   2.671888   3.896145
    15  H    4.481300   5.662891   4.784114   4.608729   3.404546
    16  H    2.015626   5.992077   7.401935   6.222262   3.259390
    17  H    2.089498   4.573869   6.095964   4.903183   2.721242
    18  H    2.089719   4.569240   6.093341   4.900197   2.722061
                    6          7          8          9         10
     6  C    0.000000
     7  C    1.394657   0.000000
     8  C    2.748428   2.419580   0.000000
     9  C    1.387851   2.447613   2.418610   0.000000
    10  C    2.381011   2.799724   1.387512   1.395025   0.000000
    11  C    4.223541   2.831268   3.659417   5.070218   4.819203
    12  H    2.139878   1.079178   3.415638   3.407796   3.878116
    13  H    3.832303   3.391483   1.084000   3.405616   2.156236
    14  H    2.148736   3.419366   3.406399   1.080398   2.168497
    15  H    3.368275   3.883422   2.141602   2.148449   1.083737
    16  H    5.275029   3.891074   4.354843   6.035153   5.627876
    17  H    4.160256   2.825025   4.027189   5.127998   5.051080
    18  H    4.159187   2.822111   4.030973   5.129715   5.054735
                   11         12         13         14         15
    11  C    0.000000
    12  H    2.566255   0.000000
    13  H    3.956139   4.304912   0.000000
    14  H    6.125702   4.284491   4.312300   0.000000
    15  H    5.767568   4.961851   2.481549   2.500595   0.000000
    16  H    1.087181   3.647344   4.410797   7.105759   6.496323
    17  H    1.093263   2.368672   4.449360   6.137558   6.038458
    18  H    1.093208   2.360643   4.454538   6.139483   6.043290
                   16         17         18
    16  H    0.000000
    17  H    1.780754   0.000000
    18  H    1.780622   1.789231   0.000000
 Symmetry turned off by external request.
 Stoichiometry    C7H7NO3
 Framework group  C1[X(C7H7NO3)]
 Deg. of freedom    48
 Full point group                 C1      NOp   1
 Rotational constants (GHZ):           1.9236048           0.8045761           0.5693587

 **********************************************************************

            Population analysis using the SCF Density.

 **********************************************************************

 Alpha  occ. eigenvalues --  -19.16512 -19.16203 -19.16157 -14.56060 -10.25811
 Alpha  occ. eigenvalues --  -10.24355 -10.22546 -10.19963 -10.19763 -10.19711
 Alpha  occ. eigenvalues --  -10.19528  -1.24441  -1.08444  -1.06893  -0.89439
 Alpha  occ. eigenvalues --   -0.81546  -0.77682  -0.73017  -0.70034  -0.62381
 Alpha  occ. eigenvalues --   -0.60341  -0.57468  -0.54882  -0.53389  -0.52008
 Alpha  occ. eigenvalues --   -0.50844  -0.49858  -0.48101  -0.46149  -0.43336
 Alpha  occ. eigenvalues --   -0.40367  -0.40246  -0.38652  -0.35567  -0.34591
 Alpha  occ. eigenvalues --   -0.32834  -0.32649  -0.30825  -0.28551  -0.24802
 Alpha virt. eigenvalues --   -0.10227  -0.02139  -0.00338   0.04814   0.06117
 Alpha virt. eigenvalues --    0.09058   0.09765   0.10792   0.11859   0.11893
 Alpha virt. eigenvalues --    0.13195   0.14189   0.15816   0.21638   0.23452
 Alpha virt. eigenvalues --    0.24849   0.26003   0.28478   0.30565   0.31116
 Alpha virt. eigenvalues --    0.33162   0.35219   0.36799   0.36944   0.39034
 Alpha virt. eigenvalues --    0.39832   0.40961   0.42124   0.42547   0.43324
 Alpha virt. eigenvalues --    0.44278   0.44881   0.48126   0.49957   0.50553
 Alpha virt. eigenvalues --    0.51947   0.56167   0.56207   0.57707   0.59148
 Alpha virt. eigenvalues --    0.59902   0.61537   0.61956   0.63552   0.64117
 Alpha virt. eigenvalues --    0.64459   0.65550   0.68980   0.71924   0.72705
 Alpha virt. eigenvalues --    0.73805   0.76195   0.77480   0.80519   0.81140
 Alpha virt. eigenvalues --    0.81325   0.82464   0.84801   0.86145   0.87383
 Alpha virt. eigenvalues --    0.90359   0.91759   0.95773   0.98086   0.98313
 Alpha virt. eigenvalues --    1.01429   1.04833   1.08110   1.10210   1.16542
 Alpha virt. eigenvalues --    1.17385   1.17861   1.20315   1.20781   1.21031
 Alpha virt. eigenvalues --    1.23649   1.32685   1.32763   1.41104   1.42583
 Alpha virt. eigenvalues --    1.45793   1.48427   1.49385   1.49971   1.54398
 Alpha virt. eigenvalues --    1.58278   1.60315   1.64096   1.65769   1.67355
 Alpha virt. eigenvalues --    1.68703   1.70229   1.73405   1.77515   1.79929
 Alpha virt. eigenvalues --    1.80855   1.85641   1.87586   1.90761   1.91216
 Alpha virt. eigenvalues --    1.94253   2.00755   2.09423   2.12370   2.15286
 Alpha virt. eigenvalues --    2.17145   2.21387   2.26376   2.28604   2.29939
 Alpha virt. eigenvalues --    2.31156   2.33387   2.34765   2.39019   2.41160
 Alpha virt. eigenvalues --    2.49852   2.52957   2.61165   2.62902   2.65243
 Alpha virt. eigenvalues --    2.66516   2.76478   2.77144   2.78576   2.80930
 Alpha virt. eigenvalues --    2.81482   2.81579   2.84845   2.88324   2.93074
 Alpha virt. eigenvalues --    3.00533   3.00650   3.08958   3.12065   3.12634
 Alpha virt. eigenvalues --    3.14720   3.18390   3.19622   3.22921   3.26163
 Alpha virt. eigenvalues --    3.27007   3.28815   3.34315   3.34702   3.35383
 Alpha virt. eigenvalues --    3.42504   3.48538   3.52941   3.61880   3.64933
 Alpha virt. eigenvalues --    3.70830   3.73858   3.81246   3.91683   3.95535
 Alpha virt. eigenvalues --    4.06089   4.41058   4.57097   4.75923   4.80298
 Alpha virt. eigenvalues --    4.82119   4.85959   4.90516   4.95774   5.20516
 Alpha virt. eigenvalues --    5.54908   5.67332   6.00758  23.20237  23.42381
 Alpha virt. eigenvalues --   23.78729  23.80844  24.00122  24.02864  24.11732
 Alpha virt. eigenvalues --   35.34854  49.80831  49.89257  49.94074
          Condensed to atoms (all electrons):
               1          2          3          4          5          6
     1  O    7.903165  -0.000000   0.000000  -0.000025   0.393226   0.007075
     2  O   -0.000000   8.183885  -0.118996   0.316071   0.001783  -0.135193
     3  O    0.000000  -0.118996   8.177604   0.325115  -0.000055  -0.143849
     4  N   -0.000025   0.316071   0.325115   6.036469   0.000684   0.228638
     5  C    0.393226   0.001783  -0.000055   0.000684   4.719236   0.041457
     6  C    0.007075  -0.135193  -0.143849   0.228638   0.041457   5.155294
     7  C   -0.079322   0.008321   0.008659  -0.033699   0.317991   0.345868
     8  C   -0.053473   0.000114   0.000075   0.000476   0.507209  -0.050009
     9  C    0.000166   0.009731   0.019761  -0.030982  -0.039009   0.443414
    10  C    0.002911  -0.000180   0.001100   0.002982  -0.029425  -0.030132
    11  C    0.261096  -0.000051  -0.000000  -0.000017  -0.093663  -0.000763
    12  H   -0.007470   0.031643   0.001060  -0.009025  -0.028397  -0.043858
    13  H    0.007538   0.000001   0.000001   0.000024  -0.054680  -0.002477
    14  H    0.000006   0.000736   0.023677  -0.009015  -0.001108  -0.043971
    15  H   -0.000125   0.000003  -0.000057  -0.000153   0.007152   0.006726
    16  H   -0.020969  -0.000001  -0.000000  -0.000001   0.002936   0.000074
    17  H   -0.032552  -0.000102  -0.000000   0.000022  -0.006508  -0.000826
    18  H   -0.032454  -0.000106  -0.000000   0.000022  -0.006733  -0.000800
               7          8          9         10         11         12
     1  O   -0.079322  -0.053473   0.000166   0.002911   0.261096  -0.007470
     2  O    0.008321   0.000114   0.009731  -0.000180  -0.000051   0.031643
     3  O    0.008659   0.000075   0.019761   0.001100  -0.000000   0.001060
     4  N   -0.033699   0.000476  -0.030982   0.002982  -0.000017  -0.009025
     5  C    0.317991   0.507209  -0.039009  -0.029425  -0.093663  -0.028397
     6  C    0.345868  -0.050009   0.443414  -0.030132  -0.000763  -0.043858
     7  C    5.546842  -0.057116  -0.099538  -0.041250  -0.011878   0.366832
     8  C   -0.057116   5.020893  -0.052902   0.532636   0.006669   0.004365
     9  C   -0.099538  -0.052902   5.119476   0.485689   0.000046   0.005216
    10  C   -0.041250   0.532636   0.485689   4.952637  -0.000300  -0.000942
    11  C   -0.011878   0.006669   0.000046  -0.000300   5.178681   0.004335
    12  H    0.366832   0.004365   0.005216  -0.000942   0.004335   0.411431
    13  H    0.013623   0.384701   0.007735  -0.037832  -0.000850  -0.000059
    14  H    0.007757   0.005782   0.378412  -0.029861   0.000001  -0.000335
    15  H   -0.001520  -0.041691  -0.041700   0.401800   0.000016   0.000040
    16  H    0.001491  -0.000438   0.000001   0.000021   0.383800  -0.000075
    17  H    0.004770   0.000272  -0.000042  -0.000025   0.373800   0.000772
    18  H    0.004824   0.000245  -0.000041  -0.000023   0.373804   0.000788
              13         14         15         16         17         18
     1  O    0.007538   0.000006  -0.000125  -0.020969  -0.032552  -0.032454
     2  O    0.000001   0.000736   0.000003  -0.000001  -0.000102  -0.000106
     3  O    0.000001   0.023677  -0.000057  -0.000000  -0.000000  -0.000000
     4  N    0.000024  -0.009015  -0.000153  -0.000001   0.000022   0.000022
     5  C   -0.054680  -0.001108   0.007152   0.002936  -0.006508  -0.006733
     6  C   -0.002477  -0.043971   0.006726   0.000074  -0.000826  -0.000800
     7  C    0.013623   0.007757  -0.001520   0.001491   0.004770   0.004824
     8  C    0.384701   0.005782  -0.041691  -0.000438   0.000272   0.000245
     9  C    0.007735   0.378412  -0.041700   0.000001  -0.000042  -0.000041
    10  C   -0.037832  -0.029861   0.401800   0.000021  -0.000025  -0.000023
    11  C   -0.000850   0.000001   0.000016   0.383800   0.373800   0.373804
    12  H   -0.000059  -0.000335   0.000040  -0.000075   0.000772   0.000788
    13  H    0.459358  -0.000119  -0.007571  -0.000103   0.000152   0.000153
    14  H   -0.000119   0.429413  -0.005958  -0.000000   0.000002   0.000002
    15  H   -0.007571  -0.005958   0.452008  -0.000001  -0.000001  -0.000001
    16  H   -0.000103  -0.000000  -0.000001   0.435824  -0.023642  -0.023707
    17  H    0.000152   0.000002  -0.000001  -0.023642   0.495145  -0.042638
    18  H    0.000153   0.000002  -0.000001  -0.023707  -0.042638   0.495227
 Mulliken charges:
               1
     1  O   -0.348792
     2  O   -0.297660
     3  O   -0.294094
     4  N    0.172415
     5  C    0.267904
     6  C    0.223333
     7  C   -0.302656
     8  C   -0.207808
     9  C   -0.205432
    10  C   -0.209807
    11  C   -0.474726
    12  H    0.263678
    13  H    0.230405
    14  H    0.244578
    15  H    0.231034
    16  H    0.244790
    17  H    0.231401
    18  H    0.231437
 Sum of Mulliken charges =  -0.00000
 Mulliken charges with hydrogens summed into heavy atoms:
               1
     1  O   -0.348792
     2  O   -0.297660
     3  O   -0.294094
     4  N    0.172415
     5  C    0.267904
     6  C    0.223333
     7  C   -0.038978
     8  C    0.022597
     9  C    0.039146
    10  C    0.021227
    11  C    0.232901
 Electronic spatial extent (au):  <R**2>=           3858.2081
 Charge=              0.0000 electrons
 Dipole moment (field-independent basis, Debye):
    X=             -0.1113    Y=              3.3136    Z=              3.7739  Tot=              5.0235
 Quadrupole moment (field-independent basis, Debye-Ang):
   XX=            -56.2980   YY=            -77.0595   ZZ=            -83.7697
   XY=             -0.5101   XZ=              8.1583   YZ=            -19.9489
 Traceless Quadrupole moment (field-independent basis, Debye-Ang):
   XX=             16.0777   YY=             -4.6837   ZZ=            -11.3940
   XY=             -0.5101   XZ=              8.1583   YZ=            -19.9489
 Octapole moment (field-independent basis, Debye-Ang**2):
  XXX=            -46.3919  YYY=            262.8580  ZZZ=            554.3322  XYY=            -33.5048
  XXY=             75.8965  XXZ=            144.9171  XZZ=            -40.3248  YZZ=            164.6963
  YYZ=            218.6056  XYZ=            -10.9265
 Hexadecapole moment (field-independent basis, Debye-Ang**3):
 XXXX=           -548.0984 YYYY=          -1329.8271 ZZZZ=          -3729.5430 XXXY=            133.0485
 XXXZ=            -12.7551 YYYX=            195.8230 YYYZ=          -1010.2913 ZZZX=             26.2873
 ZZZY=          -1227.0414 XXYY=           -314.0420 XXZZ=           -598.9628 YYZZ=          -1058.2818
 XXYZ=           -287.3508 YYXZ=             41.7873 ZZXY=             86.3838
 N-N= 5.889300598870D+02 E-N=-2.467612517840D+03  KE= 5.496121620048D+02
 Unable to Open any file for archive entry.
 1\1\GINC-SE075\FOpt\RB3LYP\6-311G(d)\C7H7N1O3\KEIGHAN\07-Jun-2024\0\\#
  opt B3LYP/6-311g* scrf=(solvent=water) int=ultrafine Nosymm\\3-nitroa
 nisole ground state geometry optimization\\0,1\O,1.0530770608,0.133696
 5625,-0.0335240405\O,1.422440414,-3.3209228173,-3.6697502199\O,-0.2391
 597138,-2.905381271,-4.9907673534\N,0.4309123028,-2.6737146165,-3.9903
 420718\C,0.4028740482,-0.2314575829,-1.1642069514\C,0.0207968855,-1.55
 34318904,-3.1240017303\C,0.7862344781,-1.2900902539,-1.9882978152\C,-0
 .7293270546,0.5309773917,-1.497222998\C,-1.1009732157,-0.8143079051,-3
 .4725103157\C,-1.4672415972,0.2400199822,-2.6356503246\C,2.2091963102,
 -0.6082273189,0.3625147692\H,1.6469763185,-1.9063545036,-1.7786152213\
 H,-1.0101995324,1.3490973009,-0.8438879974\H,-1.6630253994,-1.05642295
 61,-4.3628685792\H,-2.3379914137,0.8383166508,-2.8771506872\H,2.555545
 4274,-0.1419430583,1.2815271559\H,1.9587363803,-1.6546913561,0.5559254
 298\H,2.9947583011,-0.548822358,-0.3954210491\\Version=ES64L-G16RevC.0
 1\HF=-551.4163482\RMSD=5.167e-09\RMSF=3.944e-05\Dipole=-0.0438057,1.30
 3682,1.484783\Quadrupole=11.9533932,-3.4822436,-8.4711496,-0.3792747,6
 .0655085,-14.8314842\PG=C01 [X(C7H7N1O3)]\\@
 The archive entry for this job was punched.


 IN THE WOODS WE RETURN TO REASON AND FAITH.

                                 -- EMERSON
 Job cpu time:       0 days  0 hours 53 minutes 56.3 seconds.
 Elapsed time:       0 days  0 hours 14 minutes 38.0 seconds.
 File lengths (MBytes):  RWF=     68 Int=      0 D2E=      0 Chk=     15 Scr=      1
 Normal termination of Gaussian 16 at Fri Jun  7 12:56:38 2024.
