 Entering Gaussian System, Link 0=g16
 Initial command:
 /arc/software/Gaussian/g16.c01/l1.exe "/tmp/slurm/1126566/Gau-129396.inp" -scrdir="/tmp/slurm/1126566/"
 Entering Link 1 = /arc/software/Gaussian/g16.c01/l1.exe PID=    129397.
  
 Copyright (c) 1988-2019, Gaussian, Inc.  All Rights Reserved.
  
 This is part of the Gaussian(R) 16 program.  It is based on
 the Gaussian(R) 09 system (copyright 2009, Gaussian, Inc.),
 the Gaussian(R) 03 system (copyright 2003, Gaussian, Inc.),
 the Gaussian(R) 98 system (copyright 1998, Gaussian, Inc.),
 the Gaussian(R) 94 system (copyright 1995, Gaussian, Inc.),
 the Gaussian 92(TM) system (copyright 1992, Gaussian, Inc.),
 the Gaussian 90(TM) system (copyright 1990, Gaussian, Inc.),
 the Gaussian 88(TM) system (copyright 1988, Gaussian, Inc.),
 the Gaussian 86(TM) system (copyright 1986, Carnegie Mellon
 University), and the Gaussian 82(TM) system (copyright 1983,
 Carnegie Mellon University). Gaussian is a federally registered
 trademark of Gaussian, Inc.
  
 This software contains proprietary and confidential information,
 including trade secrets, belonging to Gaussian, Inc.
  
 This software is provided under written license and may be
 used, copied, transmitted, or stored only in accord with that
 written license.
  
 The following legend is applicable only to US Government
 contracts under FAR:
  
                    RESTRICTED RIGHTS LEGEND
  
 Use, reproduction and disclosure by the US Government is
 subject to restrictions as set forth in subparagraphs (a)
 and (c) of the Commercial Computer Software - Restricted
 Rights clause in FAR 52.227-19.
  
 Gaussian, Inc.
 340 Quinnipiac St., Bldg. 40, Wallingford CT 06492
  
  
 ---------------------------------------------------------------
 Warning -- This program may not be used in any manner that
 competes with the business of Gaussian, Inc. or will provide
 assistance to any competitor of Gaussian, Inc.  The licensee
 of this program is prohibited from giving any competitor of
 Gaussian, Inc. access to this program.  By using this program,
 the user acknowledges that Gaussian, Inc. is engaged in the
 business of creating and licensing software in the field of
 computational chemistry and represents and warrants to the
 licensee that it is not a competitor of Gaussian, Inc. and that
 it will not use this program in any manner prohibited above.
 ---------------------------------------------------------------
  

 Cite this work as:
 Gaussian 16, Revision C.01,
 M. J. Frisch, G. W. Trucks, H. B. Schlegel, G. E. Scuseria, 
 M. A. Robb, J. R. Cheeseman, G. Scalmani, V. Barone, 
 G. A. Petersson, H. Nakatsuji, X. Li, M. Caricato, A. V. Marenich, 
 J. Bloino, B. G. Janesko, R. Gomperts, B. Mennucci, H. P. Hratchian, 
 J. V. Ortiz, A. F. Izmaylov, J. L. Sonnenberg, D. Williams-Young, 
 F. Ding, F. Lipparini, F. Egidi, J. Goings, B. Peng, A. Petrone, 
 T. Henderson, D. Ranasinghe, V. G. Zakrzewski, J. Gao, N. Rega, 
 G. Zheng, W. Liang, M. Hada, M. Ehara, K. Toyota, R. Fukuda, 
 J. Hasegawa, M. Ishida, T. Nakajima, Y. Honda, O. Kitao, H. Nakai, 
 T. Vreven, K. Throssell, J. A. Montgomery, Jr., J. E. Peralta, 
 F. Ogliaro, M. J. Bearpark, J. J. Heyd, E. N. Brothers, K. N. Kudin, 
 V. N. Staroverov, T. A. Keith, R. Kobayashi, J. Normand, 
 K. Raghavachari, A. P. Rendell, J. C. Burant, S. S. Iyengar, 
 J. Tomasi, M. Cossi, J. M. Millam, M. Klene, C. Adamo, R. Cammi, 
 J. W. Ochterski, R. L. Martin, K. Morokuma, O. Farkas, 
 J. B. Foresman, and D. J. Fox, Gaussian, Inc., Wallingford CT, 2019.
 
 ******************************************
 Gaussian 16:  ES64L-G16RevC.01  3-Jul-2019
                 7-Jun-2024 
 ******************************************
 %chk=ground_state_opt.chk
 %mem=128GB
 %nprocshared=4
 Will use up to    4 processors via shared memory.
 ----------------------------------------------------------------------
 # M062X/6-311g* TDA=(triplet,root=1) scrf=(solvent=water) int=ultrafin
 e Nosymm geom=checkpoint
 ----------------------------------------------------------------------
 1/29=2,38=1,172=1/1;
 2/12=2,15=1,40=1/2;
 3/5=4,6=6,7=1,11=9,14=-4,25=1,30=1,70=2201,72=1,74=-55,75=-5/1,2,3,8;
 4//1;
 5/5=2,38=5,53=1/2;
 8/6=1,10=2,107=1/1;
 9/8=1,42=1,48=3/14;
 6/7=2,8=2,9=2,10=2/1;
 99/5=1,9=1/99;
 ----------------------------------------
 3-nitroanisole triplet state calculation
 ----------------------------------------
 Structure from the checkpoint file:  "ground_state_opt.chk"
 Charge =  0 Multiplicity = 3
 Redundant internal coordinates found in file.  (old form).
 O,0,1.0530770608,0.1336965625,-0.0335240405
 O,0,1.422440414,-3.3209228173,-3.6697502199
 O,0,-0.2391597138,-2.905381271,-4.9907673534
 N,0,0.4309123028,-2.6737146165,-3.9903420718
 C,0,0.4028740482,-0.2314575829,-1.1642069514
 C,0,0.0207968855,-1.5534318904,-3.1240017303
 C,0,0.7862344781,-1.2900902539,-1.9882978152
 C,0,-0.7293270546,0.5309773917,-1.497222998
 C,0,-1.1009732157,-0.8143079051,-3.4725103157
 C,0,-1.4672415972,0.2400199822,-2.6356503246
 C,0,2.2091963102,-0.6082273189,0.3625147692
 H,0,1.6469763185,-1.9063545036,-1.7786152213
 H,0,-1.0101995324,1.3490973009,-0.8438879974
 H,0,-1.6630253994,-1.0564229561,-4.3628685792
 H,0,-2.3379914137,0.8383166508,-2.8771506872
 H,0,2.5555454274,-0.1419430583,1.2815271559
 H,0,1.9587363803,-1.6546913561,0.5559254298
 H,0,2.9947583011,-0.548822358,-0.3954210491
 Recover connectivity data from disk.
                           ----------------------------
                           !    Current Parameters    !
                           ! (Angstroms and Degrees)  !
 --------------------------                            --------------------------
 ! Name  Definition              Value                                          !
 --------------------------------------------------------------------------------
 ! R1    R(1,5)                  1.3545                                         !
 ! R2    R(1,11)                 1.4297                                         !
 ! R3    R(2,4)                  1.2267                                         !
 ! R4    R(3,4)                  1.2262                                         !
 ! R5    R(4,6)                  1.4744                                         !
 ! R6    R(5,7)                  1.3953                                         !
 ! R7    R(5,8)                  1.405                                          !
 ! R8    R(6,7)                  1.3947                                         !
 ! R9    R(6,9)                  1.3879                                         !
 ! R10   R(7,12)                 1.0792                                         !
 ! R11   R(8,10)                 1.3875                                         !
 ! R12   R(8,13)                 1.084                                          !
 ! R13   R(9,10)                 1.395                                          !
 ! R14   R(9,14)                 1.0804                                         !
 ! R15   R(10,15)                1.0837                                         !
 ! R16   R(11,16)                1.0872                                         !
 ! R17   R(11,17)                1.0933                                         !
 ! R18   R(11,18)                1.0932                                         !
 ! A1    A(5,1,11)             118.6557                                         !
 ! A2    A(2,4,3)              123.7283                                         !
 ! A3    A(2,4,6)              118.1747                                         !
 ! A4    A(3,4,6)              118.097                                          !
 ! A5    A(1,5,7)              124.4512                                         !
 ! A6    A(1,5,8)              116.0018                                         !
 ! A7    A(7,5,8)              119.547                                          !
 ! A8    A(4,6,7)              117.9892                                         !
 ! A9    A(4,6,9)              118.8124                                         !
 ! A10   A(7,6,9)              123.1984                                         !
 ! A11   A(5,7,6)              118.2573                                         !
 ! A12   A(5,7,12)             122.5241                                         !
 ! A13   A(6,7,12)             119.2185                                         !
 ! A14   A(5,8,10)             120.6129                                         !
 ! A15   A(5,8,13)             118.3914                                         !
 ! A16   A(10,8,13)            120.9957                                         !
 ! A17   A(6,9,10)             117.6506                                         !
 ! A18   A(6,9,14)             120.5363                                         !
 ! A19   A(10,9,14)            121.8131                                         !
 ! A20   A(8,10,9)             120.7337                                         !
 ! A21   A(8,10,15)            119.6285                                         !
 ! A22   A(9,10,15)            119.6377                                         !
 ! A23   A(1,11,16)            105.6175                                         !
 ! A24   A(1,11,17)            111.13                                           !
 ! A25   A(1,11,18)            111.1517                                         !
 ! A26   A(16,11,17)           109.51                                           !
 ! A27   A(16,11,18)           109.502                                          !
 ! A28   A(17,11,18)           109.8338                                         !
 ! D1    D(11,1,5,7)            -0.3291                                         !
 ! D2    D(11,1,5,8)           179.6808                                         !
 ! D3    D(5,1,11,16)         -179.9609                                         !
 ! D4    D(5,1,11,17)          -61.2885                                         !
 ! D5    D(5,1,11,18)           61.3646                                         !
 ! D6    D(2,4,6,7)              0.1414                                         !
 ! D7    D(2,4,6,9)           -179.8474                                         !
 ! D8    D(3,4,6,7)           -179.8622                                         !
 ! D9    D(3,4,6,9)              0.1489                                         !
 ! D10   D(1,5,7,6)            179.9877                                         !
 ! D11   D(1,5,7,12)            -0.0103                                         !
 ! D12   D(8,5,7,6)             -0.0226                                         !
 ! D13   D(8,5,7,12)           179.9794                                         !
 ! D14   D(1,5,8,10)          -179.991                                          !
 ! D15   D(1,5,8,13)            -0.0034                                         !
 ! D16   D(7,5,8,10)             0.0184                                         !
 ! D17   D(7,5,8,13)          -179.994                                          !
 ! D18   D(4,6,7,5)           -179.9777                                         !
 ! D19   D(4,6,7,12)             0.0203                                         !
 ! D20   D(9,6,7,5)              0.0106                                         !
 ! D21   D(9,6,7,12)          -179.9913                                         !
 ! D22   D(4,6,9,10)           179.9944                                         !
 ! D23   D(4,6,9,14)             0.0076                                         !
 ! D24   D(7,6,9,10)             0.0062                                         !
 ! D25   D(7,6,9,14)          -179.9806                                         !
 ! D26   D(5,8,10,9)            -0.0012                                         !
 ! D27   D(5,8,10,15)          179.9784                                         !
 ! D28   D(13,8,10,9)         -179.9885                                         !
 ! D29   D(13,8,10,15)          -0.0089                                         !
 ! D30   D(6,9,10,8)            -0.0108                                         !
 ! D31   D(6,9,10,15)         -179.9905                                         !
 ! D32   D(14,9,10,8)          179.9758                                         !
 ! D33   D(14,9,10,15)          -0.0038                                         !
 --------------------------------------------------------------------------------
                          Input orientation:                          
 ---------------------------------------------------------------------
 Center     Atomic      Atomic             Coordinates (Angstroms)
 Number     Number       Type             X           Y           Z
 ---------------------------------------------------------------------
      1          8           0        1.053077    0.133697   -0.033524
      2          8           0        1.422440   -3.320923   -3.669750
      3          8           0       -0.239160   -2.905381   -4.990767
      4          7           0        0.430912   -2.673715   -3.990342
      5          6           0        0.402874   -0.231458   -1.164207
      6          6           0        0.020797   -1.553432   -3.124002
      7          6           0        0.786234   -1.290090   -1.988298
      8          6           0       -0.729327    0.530977   -1.497223
      9          6           0       -1.100973   -0.814308   -3.472510
     10          6           0       -1.467242    0.240020   -2.635650
     11          6           0        2.209196   -0.608227    0.362515
     12          1           0        1.646976   -1.906355   -1.778615
     13          1           0       -1.010200    1.349097   -0.843888
     14          1           0       -1.663025   -1.056423   -4.362869
     15          1           0       -2.337991    0.838317   -2.877151
     16          1           0        2.555545   -0.141943    1.281527
     17          1           0        1.958736   -1.654691    0.555925
     18          1           0        2.994758   -0.548822   -0.395421
 ---------------------------------------------------------------------
                    Distance matrix (angstroms):
                    1          2          3          4          5
     1  O    0.000000
     2  O    5.029211   0.000000
     3  O    5.956520   2.163025   0.000000
     4  N    4.891325   1.226697   1.226180   0.000000
     5  C    1.354454   4.106344   4.712180   3.735297   0.000000
     6  C    3.669204   2.320877   2.319517   1.474372   2.394660
     7  C    2.433005   2.712254   3.560256   2.459441   1.395276
     8  C    2.340344   4.918040   4.924802   4.222777   1.405022
     9  C    4.167166   3.562252   2.724044   2.464187   2.815943
    10  C    3.624137   4.701057   4.116833   3.732027   2.425854
    11  C    1.429654   4.923095   6.318939   5.135747   2.394919
    12  H    2.749521   2.372301   3.856616   2.638065   2.174987
    13  H    2.528043   5.975979   5.990968   5.306599   2.144186
    14  H    5.247554   3.889534   2.416671   2.671888   3.896145
    15  H    4.481300   5.662891   4.784114   4.608729   3.404546
    16  H    2.015626   5.992077   7.401935   6.222262   3.259390
    17  H    2.089498   4.573869   6.095964   4.903183   2.721242
    18  H    2.089719   4.569240   6.093341   4.900197   2.722061
                    6          7          8          9         10
     6  C    0.000000
     7  C    1.394657   0.000000
     8  C    2.748428   2.419580   0.000000
     9  C    1.387851   2.447613   2.418610   0.000000
    10  C    2.381011   2.799724   1.387512   1.395025   0.000000
    11  C    4.223541   2.831268   3.659417   5.070218   4.819203
    12  H    2.139878   1.079178   3.415638   3.407796   3.878116
    13  H    3.832303   3.391483   1.084000   3.405616   2.156236
    14  H    2.148736   3.419366   3.406399   1.080398   2.168497
    15  H    3.368275   3.883422   2.141602   2.148449   1.083737
    16  H    5.275029   3.891074   4.354843   6.035153   5.627876
    17  H    4.160256   2.825025   4.027189   5.127998   5.051080
    18  H    4.159187   2.822111   4.030973   5.129715   5.054735
                   11         12         13         14         15
    11  C    0.000000
    12  H    2.566255   0.000000
    13  H    3.956139   4.304912   0.000000
    14  H    6.125702   4.284491   4.312300   0.000000
    15  H    5.767568   4.961851   2.481549   2.500595   0.000000
    16  H    1.087181   3.647344   4.410797   7.105759   6.496323
    17  H    1.093263   2.368672   4.449360   6.137558   6.038458
    18  H    1.093208   2.360643   4.454538   6.139483   6.043290
                   16         17         18
    16  H    0.000000
    17  H    1.780754   0.000000
    18  H    1.780622   1.789231   0.000000
 Symmetry turned off by external request.
 Stoichiometry    C7H7NO3(3)
 Framework group  C1[X(C7H7NO3)]
 Deg. of freedom    48
 Full point group                 C1      NOp   1
 Rotational constants (GHZ):           1.9236048           0.8045761           0.5693587
 Standard basis: 6-311G(d) (5D, 7F)
   219 basis functions,   387 primitive gaussians,   230 cartesian basis functions
    41 alpha electrons       39 beta electrons
       nuclear repulsion energy       588.9300598870 Hartrees.
 NAtoms=   18 NActive=   18 NUniq=   18 SFac= 1.00D+00 NAtFMM=   60 NAOKFM=F Big=F
 Integral buffers will be    131072 words long.
 Regular integral format.
 Two-electron integral symmetry is turned off.
 ------------------------------------------------------------------------------
 Polarizable Continuum Model (PCM)
 =================================
 Model                : PCM.
 Atomic radii         : UFF (Universal Force Field).
 Polarization charges : Total charges.
 Charge compensation  : None.
 Solution method      : On-the-fly selection.
 Cavity type          : Scaled VdW (van der Waals Surface) (Alpha=1.100).
 Cavity algorithm     : GePol (No added spheres)
                        Default sphere list used, NSphG=   18.
                        Lebedev-Laikov grids with approx.  5.0 points / Ang**2.
                        Smoothing algorithm: York/Karplus (Gamma=1.0000).
                        Polarization charges: spherical gaussians, with
                                              point-specific exponents (IZeta= 3).
                        Self-potential: point-specific (ISelfS= 7).
                        Self-field    : sphere-specific E.n sum rule (ISelfD= 2).
 Solvent              : Water, Eps=  78.355300 Eps(inf)=   1.777849
 ------------------------------------------------------------------------------
 Spheres list:
 ISph  on   Nord     Re0    Alpha      Xe            Ye            Ze
    1   O      1    1.7500  1.100      1.053077      0.133697     -0.033524
    2   O      2    1.7500  1.100      1.422440     -3.320923     -3.669750
    3   O      3    1.7500  1.100     -0.239160     -2.905381     -4.990767
    4   N      4    1.8300  1.100      0.430912     -2.673715     -3.990342
    5   C      5    1.9255  1.100      0.402874     -0.231458     -1.164207
    6   C      6    1.9255  1.100      0.020797     -1.553432     -3.124002
    7   C      7    1.9255  1.100      0.786234     -1.290090     -1.988298
    8   C      8    1.9255  1.100     -0.729327      0.530977     -1.497223
    9   C      9    1.9255  1.100     -1.100973     -0.814308     -3.472510
   10   C     10    1.9255  1.100     -1.467242      0.240020     -2.635650
   11   C     11    1.9255  1.100      2.209196     -0.608227      0.362515
   12   H     12    1.4430  1.100      1.646976     -1.906355     -1.778615
   13   H     13    1.4430  1.100     -1.010200      1.349097     -0.843888
   14   H     14    1.4430  1.100     -1.663025     -1.056423     -4.362869
   15   H     15    1.4430  1.100     -2.337991      0.838317     -2.877151
   16   H     16    1.4430  1.100      2.555545     -0.141943      1.281527
   17   H     17    1.4430  1.100      1.958736     -1.654691      0.555925
   18   H     18    1.4430  1.100      2.994758     -0.548822     -0.395421
 ------------------------------------------------------------------------------
 One-electron integrals computed using PRISM.
 NBasis=   219 RedAO= T EigKep=  2.14D-04  NBF=   219
 NBsUse=   219 1.00D-06 EigRej= -1.00D+00 NBFU=   219
 ExpMin= 1.03D-01 ExpMax= 8.59D+03 ExpMxC= 1.30D+03 IAcc=3 IRadAn=         5 AccDes= 0.00D+00
 Harris functional with IExCor= 1009 and IRadAn=       5 diagonalized for initial guess.
 HarFok:  IExCor= 1009 AccDes= 0.00D+00 IRadAn=         5 IDoV= 1 UseB2=F ITyADJ=14
 ICtDFT=  3500011 ScaDFX=  1.000000  1.000000  1.000000  1.000000
 FoFCou: FMM=F IPFlag=           0 FMFlag=      100000 FMFlg1=           0
         NFxFlg=           0 DoJE=T BraDBF=F KetDBF=T FulRan=T
         wScrn=  0.000000 ICntrl=       500 IOpCl=  0 I1Cent=   200000004 NGrid=           0
         NMat0=    1 NMatS0=      1 NMatT0=    0 NMatD0=    1 NMtDS0=    0 NMtDT0=    0
 Symmetry not used in FoFCou.
 Initial guess <Sx>= 0.0000 <Sy>= 0.0000 <Sz>= 1.0000 <S**2>= 2.0000 S= 1.0000
 Keep R1 and R2 ints in memory in canonical form, NReq=586516540.
 Requested convergence on RMS density matrix=1.00D-08 within 128 cycles.
 Requested convergence on MAX density matrix=1.00D-06.
 Requested convergence on             energy=1.00D-06.
 No special actions if energy rises.
 Inv3:  Mode=1 IEnd=     7087107.
 Iteration    1 A*A^-1 deviation from unit magnitude is 6.00D-15 for    379.
 Iteration    1 A*A^-1 deviation from orthogonality  is 1.94D-15 for   1443    366.
 Iteration    1 A^-1*A deviation from unit magnitude is 5.33D-15 for   1524.
 Iteration    1 A^-1*A deviation from orthogonality  is 3.22D-15 for   1529    299.
 Error on total polarization charges =  0.00755
 SCF Done:  E(UM062X) =  -551.073217082     A.U. after   23 cycles
            NFock= 23  Conv=0.66D-08     -V/T= 2.0027
 <Sx>= 0.0000 <Sy>= 0.0000 <Sz>= 1.0000 <S**2>= 2.0353 S= 1.0117
 <L.S>=  0.00000000000    
 Annihilation of the first spin contaminant:
 S**2 before annihilation     2.0353,   after     2.0006
 DoSCS=F DFT=T ScalE2(SS,OS)=  1.000000  1.000000
 ExpMin= 1.03D-01 ExpMax= 8.59D+03 ExpMxC= 1.30D+03 IAcc=3 IRadAn=         5 AccDes= 0.00D+00
 HarFok:  IExCor=  205 AccDes= 0.00D+00 IRadAn=         5 IDoV=-2 UseB2=F ITyADJ=14
 ICtDFT= 12500011 ScaDFX=  1.000000  1.000000  1.000000  1.000000
 Range of M.O.s used for correlation:    12   219
 NBasis=   219 NAE=    41 NBE=    39 NFC=    11 NFV=     0
 NROrb=    208 NOA=    30 NOB=    28 NVA=   178 NVB=   180

 **** Warning!!: The largest alpha MO coefficient is  0.17036784D+02


 **** Warning!!: The largest beta MO coefficient is  0.17124227D+02

 Ignoring spin specification with unrestricted ground state.
 Keep R1, R2, and R3 ints in memory in canonical form, NReq=887566815.
 NEqPCM:  Using non-equilibrium solvation (IEInf=1, Eps=  78.3553, EpsInf=   1.7778)
 Inv3:  Mode=1 IEnd=     7087107.
 Iteration    1 A*A^-1 deviation from unit magnitude is 6.88D-15 for    376.
 Iteration    1 A*A^-1 deviation from orthogonality  is 2.75D-15 for   1519   1279.
 Iteration    1 A^-1*A deviation from unit magnitude is 6.22D-15 for    376.
 Iteration    1 A^-1*A deviation from orthogonality  is 1.59D-15 for   1526    316.
    12 initial guesses have been made.
 Convergence on wavefunction:    0.001000000000000
 Iteration     1 Dimension    12 NMult     0 NNew     12
 CISAX will form    12 AO SS matrices at one time.
 New state      1 was old state      3
 New state      2 was old state      4
 New state      3 was old state      1
 Iteration     2 Dimension    24 NMult    12 NNew     12
 Iteration     3 Dimension    27 NMult    24 NNew      3
 Iteration     4 Dimension    30 NMult    27 NNew      3
 Iteration     5 Dimension    33 NMult    30 NNew      3
 Iteration     6 Dimension    35 NMult    33 NNew      2
 ***********************************************************************
 Excited states from <AA,BB:AA,BB> singles matrix:
 ***********************************************************************
 
 ExtSpn:  IState=     1 X2= 1.000 Y2= 0.000 X2-Y2-1=-1.11D-16
          S2Grnd=  2.035 Ra=  0.008 Rb= -0.008 T=  0.002 S2Ext=  0.002 S2=  2.037
 ExtSpn:  IState=     2 X2= 1.000 Y2= 0.000 X2-Y2-1=-3.33D-16
          S2Grnd=  2.035 Ra= -0.010 Rb=  0.005 T=  0.001 S2Ext= -0.005 S2=  2.031
 ExtSpn:  IState=     3 X2= 1.000 Y2= 0.000 X2-Y2-1=-2.22D-16
          S2Grnd=  2.035 Ra=  0.001 Rb=  0.007 T= -0.003 S2Ext=  0.006 S2=  2.041
 Ground to excited state transition densities written to RWF  633
 Ground to excited state transition electric dipole moments (Au):
       state          X           Y           Z        Dip. S.      Osc.
         1        -0.1033      0.0030     -0.1083      0.0224      0.0006
         2         0.2085     -0.2099     -0.0200      0.0879      0.0038
         3         0.1418      0.0043      0.1593      0.0455      0.0021
 Ground to excited state transition velocity dipole moments (Au):
       state          X           Y           Z        Dip. S.      Osc.
         1        -0.0141      0.0204      0.0087      0.0007      0.0110
         2         0.0353     -0.0115      0.0247      0.0020      0.0203
         3         0.0110      0.0084      0.0219      0.0007      0.0066
 Ground to excited state transition magnetic dipole moments (Au):
       state          X           Y           Z
         1        -0.4201     -0.4743      0.4358
         2        -0.5380     -0.6392      0.4707
         3         0.1586      0.1221     -0.1285
 Ground to excited state transition velocity quadrupole moments (Au):
       state          XX          YY          ZZ          XY          XZ          YZ
         1        -0.0927     -0.0084     -0.0431      0.0491     -0.0098     -0.0111
         2         0.0624      0.0030     -0.3271     -0.1076     -0.1522     -0.0897
         3         0.0287     -0.0352     -0.3639     -0.0911     -0.1079     -0.1666
 <0|del|b> * <b|rxdel|0> + <0|del|b> * <b|delr+rdel|0>
 Rotatory Strengths (R) in cgs (10**-40 erg-esu-cm/Gauss)
       state          XX          YY          ZZ    R(velocity)    E-M Angle
         1       -44.3678     80.0351    -34.6902      0.3257       90.00
         2        78.7825    -42.5351    -36.2186      0.0096       90.00
         3       -14.9044     -4.6969     19.1583     -0.1477       90.00
 1/2[<0|r|b>*<b|rxdel|0> + (<0|rxdel|b>*<b|r|0>)*]
 Rotatory Strengths (R) in cgs (10**-40 erg-esu-cm/Gauss)
       state          XX          YY          ZZ     R(length)
         1       -30.6773      0.9923     33.3881      1.2344
         2        79.3263    -94.8954      6.6707     -2.9661
         3       -15.9021     -0.3701     14.4769     -0.5984
  1/2[<0|del|b>*<b|r|0> + (<0|r|b>*<b|del|0>)*] (Au)
       state          X           Y           Z        Dip. S.   Osc.(frdel)
         1         0.0015      0.0001     -0.0009     -0.0006     -0.0004
         2         0.0074      0.0024     -0.0005     -0.0093     -0.0062
         3         0.0016      0.0000      0.0035     -0.0051     -0.0034

 Excitation energies and oscillator strengths:
 
 Excited state symmetry could not be determined.
 Excited State   1:  3.025-?Sym    1.1365 eV 1090.91 nm  f=0.0006  <S**2>=2.037
     37B -> 40B        0.94620
     39B -> 40B        0.27024
 This state for optimization and/or second-order correction.
 Total Energy, E(CIS/TDA) =  -551.031450889    
 Copying the excited state density for this state as the 1-particle RhoCI density.
 
 Excited state symmetry could not be determined.
 Excited State   2:  3.020-?Sym    1.7812 eV  696.07 nm  f=0.0038  <S**2>=2.031
     41A -> 42A        0.90205
     35B -> 40B        0.12418
     37B -> 40B       -0.18260
     39B -> 40B        0.34777
 
 Excited state symmetry could not be determined.
 Excited State   3:  3.027-?Sym    1.8546 eV  668.51 nm  f=0.0021  <S**2>=2.041
     41A -> 42A       -0.37602
     41A -> 43A        0.20988
     37B -> 40B       -0.22087
     39B -> 40B        0.86489
 SavETr:  write IOETrn=   770 NScale= 10 NData=  16 NLR=1 NState=    3 LETran=      64.

 **********************************************************************

            Population analysis using the SCF Density.

 **********************************************************************

 Alpha  occ. eigenvalues --  -19.73679 -19.59970 -19.59348 -14.93009 -10.67827
 Alpha  occ. eigenvalues --  -10.61296 -10.61130 -10.59388 -10.58290 -10.58163
 Alpha  occ. eigenvalues --  -10.57942  -1.31770  -1.26340  -1.13293  -1.01827
 Alpha  occ. eigenvalues --   -0.92312  -0.89582  -0.83983  -0.79745  -0.72320
 Alpha  occ. eigenvalues --   -0.69974  -0.64868  -0.61292  -0.60716  -0.60434
 Alpha  occ. eigenvalues --   -0.59656  -0.58885  -0.56026  -0.54151  -0.52119
 Alpha  occ. eigenvalues --   -0.49626  -0.48193  -0.46613  -0.45112  -0.44766
 Alpha  occ. eigenvalues --   -0.37615  -0.35984  -0.35821  -0.35028  -0.34074
 Alpha  occ. eigenvalues --   -0.18266
 Alpha virt. eigenvalues --   -0.01114   0.01545   0.07853   0.09144   0.11785
 Alpha virt. eigenvalues --    0.12442   0.13609   0.14741   0.15111   0.16502
 Alpha virt. eigenvalues --    0.17057   0.20661   0.25304   0.26120   0.28179
 Alpha virt. eigenvalues --    0.31269   0.32898   0.33947   0.34351   0.38544
 Alpha virt. eigenvalues --    0.39050   0.39207   0.40912   0.42429   0.43701
 Alpha virt. eigenvalues --    0.44915   0.45502   0.45573   0.46700   0.47780
 Alpha virt. eigenvalues --    0.50067   0.52965   0.53653   0.53895   0.54986
 Alpha virt. eigenvalues --    0.59977   0.60688   0.61236   0.63028   0.63688
 Alpha virt. eigenvalues --    0.65076   0.65355   0.66838   0.68030   0.70509
 Alpha virt. eigenvalues --    0.71048   0.72877   0.75494   0.76594   0.80524
 Alpha virt. eigenvalues --    0.81488   0.83160   0.85011   0.87077   0.87558
 Alpha virt. eigenvalues --    0.89344   0.89664   0.91471   0.91645   0.95209
 Alpha virt. eigenvalues --    0.97238   0.98719   1.00885   1.01434   1.05967
 Alpha virt. eigenvalues --    1.10964   1.11150   1.14443   1.18522   1.20134
 Alpha virt. eigenvalues --    1.20807   1.23082   1.24186   1.25742   1.28099
 Alpha virt. eigenvalues --    1.35198   1.35918   1.43868   1.45900   1.48919
 Alpha virt. eigenvalues --    1.51301   1.51666   1.52283   1.58372   1.61131
 Alpha virt. eigenvalues --    1.65082   1.66350   1.68796   1.72610   1.72707
 Alpha virt. eigenvalues --    1.73874   1.77753   1.78413   1.82114   1.83193
 Alpha virt. eigenvalues --    1.87685   1.88942   1.93246   1.93421   1.97620
 Alpha virt. eigenvalues --    2.02249   2.14131   2.18948   2.18983   2.20169
 Alpha virt. eigenvalues --    2.23418   2.30405   2.31298   2.33933   2.34639
 Alpha virt. eigenvalues --    2.37127   2.37609   2.44448   2.47394   2.53869
 Alpha virt. eigenvalues --    2.58842   2.63077   2.66523   2.69401   2.70110
 Alpha virt. eigenvalues --    2.80109   2.82041   2.84915   2.85623   2.91560
 Alpha virt. eigenvalues --    2.93169   2.96001   2.96773   3.00009   3.03761
 Alpha virt. eigenvalues --    3.04154   3.15785   3.17652   3.19290   3.19438
 Alpha virt. eigenvalues --    3.21101   3.27545   3.30356   3.31016   3.31646
 Alpha virt. eigenvalues --    3.36104   3.38111   3.38713   3.47409   3.48208
 Alpha virt. eigenvalues --    3.53047   3.59836   3.69189   3.72646   3.82628
 Alpha virt. eigenvalues --    3.84061   3.84342   3.93681   3.96444   4.07750
 Alpha virt. eigenvalues --    4.56234   4.68270   4.75230   4.90932   4.97872
 Alpha virt. eigenvalues --    4.99787   5.08406   5.13784   5.26202   5.68768
 Alpha virt. eigenvalues --    5.71247   6.14390  23.27946  23.49608  23.85069
 Alpha virt. eigenvalues --   23.86289  24.04772  24.09166  24.17279  35.50922
 Alpha virt. eigenvalues --   49.94118  49.99416  50.12380
  Beta  occ. eigenvalues --  -19.73119 -19.59507 -19.58945 -14.92711 -10.67738
  Beta  occ. eigenvalues --  -10.61308 -10.61074 -10.59116 -10.58205 -10.58076
  Beta  occ. eigenvalues --  -10.57905  -1.30547  -1.24749  -1.11940  -1.00676
  Beta  occ. eigenvalues --   -0.90989  -0.88762  -0.83146  -0.78116  -0.71713
  Beta  occ. eigenvalues --   -0.68986  -0.63907  -0.60516  -0.59645  -0.57956
  Beta  occ. eigenvalues --   -0.57609  -0.56301  -0.55065  -0.53903  -0.51511
  Beta  occ. eigenvalues --   -0.47604  -0.47003  -0.46190  -0.44552  -0.40288
  Beta  occ. eigenvalues --   -0.35235  -0.33934  -0.33384  -0.31831
  Beta virt. eigenvalues --   -0.17293  -0.01595   0.02061   0.07444   0.07819
  Beta virt. eigenvalues --    0.09099   0.11983   0.12637   0.13616   0.14669
  Beta virt. eigenvalues --    0.15228   0.16631   0.19961   0.21133   0.26220
  Beta virt. eigenvalues --    0.26789   0.28767   0.31997   0.33290   0.34158
  Beta virt. eigenvalues --    0.35096   0.39161   0.39495   0.39973   0.41579
  Beta virt. eigenvalues --    0.43001   0.44621   0.45335   0.46002   0.46261
  Beta virt. eigenvalues --    0.46932   0.48182   0.50548   0.53433   0.53585
  Beta virt. eigenvalues --    0.54206   0.55442   0.59873   0.60949   0.62272
  Beta virt. eigenvalues --    0.63394   0.64494   0.65027   0.66040   0.66836
  Beta virt. eigenvalues --    0.68656   0.71183   0.71888   0.73355   0.75792
  Beta virt. eigenvalues --    0.77377   0.80580   0.82276   0.83784   0.85667
  Beta virt. eigenvalues --    0.87383   0.87931   0.89551   0.91328   0.91787
  Beta virt. eigenvalues --    0.93454   0.96974   0.97653   0.98788   1.01721
  Beta virt. eigenvalues --    1.02970   1.06126   1.11133   1.12009   1.14620
  Beta virt. eigenvalues --    1.20177   1.20758   1.21997   1.24752   1.25503
  Beta virt. eigenvalues --    1.25709   1.28498   1.35691   1.36487   1.44617
  Beta virt. eigenvalues --    1.46548   1.49645   1.51674   1.52309   1.52935
  Beta virt. eigenvalues --    1.58914   1.61346   1.66077   1.66550   1.70293
  Beta virt. eigenvalues --    1.72925   1.73322   1.75195   1.79603   1.79877
  Beta virt. eigenvalues --    1.82888   1.83927   1.89163   1.90294   1.94046
  Beta virt. eigenvalues --    1.95196   1.98758   2.03440   2.15655   2.20332
  Beta virt. eigenvalues --    2.20566   2.21143   2.24921   2.31692   2.31986
  Beta virt. eigenvalues --    2.34822   2.35659   2.37355   2.38320   2.44731
  Beta virt. eigenvalues --    2.48088   2.56679   2.59897   2.63934   2.69289
  Beta virt. eigenvalues --    2.71097   2.71827   2.80880   2.85677   2.86364
  Beta virt. eigenvalues --    2.86668   2.92992   2.94694   2.97128   2.97849
  Beta virt. eigenvalues --    3.01041   3.04667   3.06636   3.16311   3.18370
  Beta virt. eigenvalues --    3.19640   3.20687   3.22582   3.27813   3.31322
  Beta virt. eigenvalues --    3.31520   3.32096   3.36791   3.39082   3.39281
  Beta virt. eigenvalues --    3.48510   3.49274   3.53971   3.60766   3.69851
  Beta virt. eigenvalues --    3.73173   3.83461   3.84869   3.86420   3.95195
  Beta virt. eigenvalues --    3.97134   4.09165   4.56758   4.69585   4.77828
  Beta virt. eigenvalues --    4.93309   4.99748   5.01531   5.08957   5.14291
  Beta virt. eigenvalues --    5.26767   5.69230   5.71526   6.14466  23.28074
  Beta virt. eigenvalues --   23.49584  23.85453  23.86796  24.05583  24.09475
  Beta virt. eigenvalues --   24.17850  35.50549  49.93588  49.98953  50.11918
          Condensed to atoms (all electrons):
               1          2          3          4          5          6
     1  O    7.861582  -0.000000   0.000000  -0.000021   0.395825   0.005749
     2  O   -0.000000   8.396006  -0.115708   0.274572   0.002705  -0.169245
     3  O    0.000000  -0.115708   8.385037   0.272387  -0.000022  -0.173961
     4  N   -0.000021   0.274572   0.272387   6.156272   0.001685   0.303475
     5  C    0.395825   0.002705  -0.000022   0.001685   4.783342   0.012211
     6  C    0.005749  -0.169245  -0.173961   0.303475   0.012211   5.377161
     7  C   -0.072847   0.020472   0.010456  -0.054442   0.312231   0.346361
     8  C   -0.044502   0.000097   0.000032   0.000604   0.412734  -0.029596
     9  C   -0.000116   0.011604   0.034499  -0.052222  -0.024890   0.282023
    10  C    0.002931  -0.000158   0.001690   0.003382  -0.039396  -0.050234
    11  C    0.208766  -0.000060  -0.000000  -0.000011  -0.087265  -0.001527
    12  H   -0.005753   0.036966   0.001386  -0.008818  -0.021603  -0.034248
    13  H    0.003875   0.000001   0.000001   0.000017  -0.051297  -0.002066
    14  H    0.000007   0.000942   0.026598  -0.008411  -0.001173  -0.044791
    15  H   -0.000096   0.000002  -0.000050  -0.000119   0.006249   0.006073
    16  H   -0.019107  -0.000001  -0.000000  -0.000001   0.001885   0.000069
    17  H   -0.025466  -0.000107  -0.000001   0.000004  -0.006305  -0.000483
    18  H   -0.025381  -0.000112  -0.000001   0.000003  -0.006482  -0.000448
               7          8          9         10         11         12
     1  O   -0.072847  -0.044502  -0.000116   0.002931   0.208766  -0.005753
     2  O    0.020472   0.000097   0.011604  -0.000158  -0.000060   0.036966
     3  O    0.010456   0.000032   0.034499   0.001690  -0.000000   0.001386
     4  N   -0.054442   0.000604  -0.052222   0.003382  -0.000011  -0.008818
     5  C    0.312231   0.412734  -0.024890  -0.039396  -0.087265  -0.021603
     6  C    0.346361  -0.029596   0.282023  -0.050234  -0.001527  -0.034248
     7  C    5.553858  -0.098328  -0.077128  -0.027364  -0.010997   0.351329
     8  C   -0.098328   5.152426  -0.070239   0.530840   0.006988   0.003965
     9  C   -0.077128  -0.070239   5.227729   0.468725   0.000057   0.004767
    10  C   -0.027364   0.530840   0.468725   5.002008  -0.000327  -0.001178
    11  C   -0.010997   0.006988   0.000057  -0.000327   5.288364   0.002747
    12  H    0.351329   0.003965   0.004767  -0.001178   0.002747   0.367317
    13  H    0.009895   0.387736   0.006138  -0.028432  -0.000527  -0.000050
    14  H    0.007054   0.005074   0.372569  -0.024558   0.000002  -0.000286
    15  H   -0.001255  -0.036996  -0.037111   0.398910   0.000010   0.000031
    16  H    0.001551  -0.000425   0.000001   0.000017   0.380525   0.000040
    17  H    0.001966  -0.000202  -0.000006  -0.000001   0.373080  -0.000618
    18  H    0.002094  -0.000212  -0.000006  -0.000000   0.372979  -0.000618
              13         14         15         16         17         18
     1  O    0.003875   0.000007  -0.000096  -0.019107  -0.025466  -0.025381
     2  O    0.000001   0.000942   0.000002  -0.000001  -0.000107  -0.000112
     3  O    0.000001   0.026598  -0.000050  -0.000000  -0.000001  -0.000001
     4  N    0.000017  -0.008411  -0.000119  -0.000001   0.000004   0.000003
     5  C   -0.051297  -0.001173   0.006249   0.001885  -0.006305  -0.006482
     6  C   -0.002066  -0.044791   0.006073   0.000069  -0.000483  -0.000448
     7  C    0.009895   0.007054  -0.001255   0.001551   0.001966   0.002094
     8  C    0.387736   0.005074  -0.036996  -0.000425  -0.000202  -0.000212
     9  C    0.006138   0.372569  -0.037111   0.000001  -0.000006  -0.000006
    10  C   -0.028432  -0.024558   0.398910   0.000017  -0.000001  -0.000000
    11  C   -0.000527   0.000002   0.000010   0.380525   0.373080   0.372979
    12  H   -0.000050  -0.000286   0.000031   0.000040  -0.000618  -0.000618
    13  H    0.396649  -0.000063  -0.005635  -0.000080   0.000082   0.000083
    14  H   -0.000063   0.376398  -0.004562  -0.000000   0.000002   0.000002
    15  H   -0.005635  -0.004562   0.401515  -0.000000  -0.000001  -0.000001
    16  H   -0.000080  -0.000000  -0.000000   0.390549  -0.019090  -0.019143
    17  H    0.000082   0.000002  -0.000001  -0.019090   0.425203  -0.029252
    18  H    0.000083   0.000002  -0.000001  -0.019143  -0.029252   0.425391
          Atomic-Atomic Spin Densities.
               1          2          3          4          5          6
     1  O    0.306733  -0.000000  -0.000000   0.000001  -0.071599   0.000249
     2  O   -0.000000   0.263491   0.015235  -0.094679   0.000008  -0.016597
     3  O   -0.000000   0.015235   0.297358  -0.096608   0.000011  -0.018101
     4  N    0.000001  -0.094679  -0.096608   0.304082  -0.000361   0.103045
     5  C   -0.071599   0.000008   0.000011  -0.000361   0.175730  -0.015070
     6  C    0.000249  -0.016597  -0.018101   0.103045  -0.015070   0.214393
     7  C   -0.005823   0.005896   0.001067  -0.013421   0.082212  -0.112957
     8  C   -0.007134  -0.000020  -0.000015   0.000265   0.018411   0.008570
     9  C    0.000112   0.001038   0.004342  -0.018648  -0.002086  -0.054554
    10  C    0.000117   0.000005   0.000038  -0.000270  -0.002262  -0.004726
    11  C   -0.003125  -0.000001  -0.000000   0.000003   0.001101   0.000183
    12  H    0.000142  -0.000887  -0.000033   0.000351  -0.000255  -0.000403
    13  H   -0.000092  -0.000000  -0.000000  -0.000000  -0.000032   0.000016
    14  H    0.000000  -0.000019  -0.000611   0.000289  -0.000023  -0.001651
    15  H   -0.000001   0.000000   0.000001   0.000003   0.000063   0.000034
    16  H    0.000169   0.000000   0.000000   0.000000   0.000004  -0.000004
    17  H   -0.003271   0.000019   0.000000  -0.000011   0.002328  -0.000182
    18  H   -0.003248   0.000020   0.000000  -0.000011   0.002260  -0.000178
               7          8          9         10         11         12
     1  O   -0.005823  -0.007134   0.000112   0.000117  -0.003125   0.000142
     2  O    0.005896  -0.000020   0.001038   0.000005  -0.000001  -0.000887
     3  O    0.001067  -0.000015   0.004342   0.000038  -0.000000  -0.000033
     4  N   -0.013421   0.000265  -0.018648  -0.000270   0.000003   0.000351
     5  C    0.082212   0.018411  -0.002086  -0.002262   0.001101  -0.000255
     6  C   -0.112957   0.008570  -0.054554  -0.004726   0.000183  -0.000403
     7  C    0.221978  -0.016424   0.005881   0.001932  -0.000705  -0.000520
     8  C   -0.016424   0.515350  -0.032051  -0.040546   0.000204  -0.000090
     9  C    0.005881  -0.032051   0.626205   0.039499  -0.000011  -0.000104
    10  C    0.001932  -0.040546   0.039499  -0.202256   0.000001   0.000054
    11  C   -0.000705   0.000204  -0.000011   0.000001  -0.014569  -0.000174
    12  H   -0.000520  -0.000090  -0.000104   0.000054  -0.000174  -0.010195
    13  H   -0.000140  -0.002846   0.000021  -0.000453   0.000008   0.000002
    14  H   -0.000138   0.000024  -0.002787   0.000205  -0.000000   0.000019
    15  H   -0.000010  -0.001343  -0.001510   0.002553  -0.000000  -0.000001
    16  H   -0.000034   0.000003   0.000000   0.000000   0.000067   0.000002
    17  H    0.001757  -0.000019  -0.000001  -0.000002   0.001668   0.000024
    18  H    0.001737  -0.000018  -0.000001  -0.000002   0.001683   0.000028
              13         14         15         16         17         18
     1  O   -0.000092   0.000000  -0.000001   0.000169  -0.003271  -0.003248
     2  O   -0.000000  -0.000019   0.000000   0.000000   0.000019   0.000020
     3  O   -0.000000  -0.000611   0.000001   0.000000   0.000000   0.000000
     4  N   -0.000000   0.000289   0.000003   0.000000  -0.000011  -0.000011
     5  C   -0.000032  -0.000023   0.000063   0.000004   0.002328   0.002260
     6  C    0.000016  -0.001651   0.000034  -0.000004  -0.000182  -0.000178
     7  C   -0.000140  -0.000138  -0.000010  -0.000034   0.001757   0.001737
     8  C   -0.002846   0.000024  -0.001343   0.000003  -0.000019  -0.000018
     9  C    0.000021  -0.002787  -0.001510   0.000000  -0.000001  -0.000001
    10  C   -0.000453   0.000205   0.002553   0.000000  -0.000002  -0.000002
    11  C    0.000008  -0.000000  -0.000000   0.000067   0.001668   0.001683
    12  H    0.000002   0.000019  -0.000001   0.000002   0.000024   0.000028
    13  H   -0.017050   0.000012   0.000019  -0.000001  -0.000002  -0.000002
    14  H    0.000012  -0.019209  -0.000028   0.000000  -0.000000  -0.000000
    15  H    0.000019  -0.000028   0.004498   0.000000   0.000000   0.000000
    16  H   -0.000001   0.000000   0.000000  -0.000366   0.000045   0.000001
    17  H   -0.000002  -0.000000   0.000000   0.000045   0.014563  -0.003804
    18  H   -0.000002  -0.000000   0.000000   0.000001  -0.003804   0.014610
 Mulliken charges and spin densities:
               1          2
     1  O   -0.285448   0.213232
     2  O   -0.457976   0.173510
     3  O   -0.442345   0.202686
     4  N    0.111644   0.184030
     5  C    0.309568   0.190440
     6  C    0.173476   0.102068
     7  C   -0.274907   0.172287
     8  C   -0.219998   0.442320
     9  C   -0.146394   0.565344
    10  C   -0.236853  -0.206112
    11  C   -0.532805  -0.013665
    12  H    0.304624  -0.012039
    13  H    0.283674  -0.020540
    14  H    0.295196  -0.023917
    15  H    0.273036   0.004280
    16  H    0.283209  -0.000113
    17  H    0.281195   0.013113
    18  H    0.281105   0.013076
 Sum of Mulliken charges =  -0.00000   2.00000
 Mulliken charges and spin densities with hydrogens summed into heavy atoms:
               1          2
     1  O   -0.285448   0.213232
     2  O   -0.457976   0.173510
     3  O   -0.442345   0.202686
     4  N    0.111644   0.184030
     5  C    0.309568   0.190440
     6  C    0.173476   0.102068
     7  C    0.029717   0.160249
     8  C    0.063676   0.421780
     9  C    0.148802   0.541427
    10  C    0.036183  -0.201832
    11  C    0.312703   0.012411
 Electronic spatial extent (au):  <R**2>=           3888.4850
 Charge=             -0.0000 electrons
 Dipole moment (field-independent basis, Debye):
    X=             -0.4427    Y=              8.2853    Z=              9.2359  Tot=             12.4155
 Quadrupole moment (field-independent basis, Debye-Ang):
   XX=            -54.2809   YY=            -93.4521   ZZ=           -110.1176
   XY=              2.7839   XZ=             14.5643   YZ=            -42.2523
 Traceless Quadrupole moment (field-independent basis, Debye-Ang):
   XX=             31.6693   YY=             -7.5019   ZZ=            -24.1674
   XY=              2.7839   XZ=             14.5643   YZ=            -42.2523
 Octapole moment (field-independent basis, Debye-Ang**2):
  XXX=            -43.8612  YYY=            323.0841  ZZZ=            688.9298  XYY=            -44.9594
  XXY=             82.3640  XXZ=            151.8957  XZZ=            -61.4518  YZZ=            263.2124
  YYZ=            291.7816  XYZ=            -25.1405
 Hexadecapole moment (field-independent basis, Debye-Ang**3):
 XXXX=           -522.0826 YYYY=          -1542.4219 ZZZZ=          -4404.8290 XXXY=            140.6708
 XXXZ=             12.8664 YYYX=            235.8937 YYYZ=          -1260.6344 ZZZX=            109.9774
 ZZZY=          -1685.7465 XXYY=           -335.9346 XXZZ=           -624.2988 YYZZ=          -1376.3397
 XXYZ=           -319.8628 YYXZ=             87.0169 ZZXY=            135.3968
 N-N= 5.889300598870D+02 E-N=-2.466928921407D+03  KE= 5.495850149709D+02
 Unable to Open any file for archive entry.
 1\1\GINC-SE075\SP\UM062X TDA-FC\6-311G(d)\C7H7N1O3(3)\KEIGHAN\07-Jun-2
 024\0\\# M062X/6-311g* TDA=(triplet,root=1) scrf=(solvent=water) int=u
 ltrafine Nosymm geom=checkpoint\\3-nitroanisole triplet state calculat
 ion\\0,3\O,0,1.0530770608,0.1336965625,-0.0335240405\O,0,1.422440414,-
 3.3209228173,-3.6697502199\O,0,-0.2391597138,-2.905381271,-4.990767353
 4\N,0,0.4309123028,-2.6737146165,-3.9903420718\C,0,0.4028740482,-0.231
 4575829,-1.1642069514\C,0,0.0207968855,-1.5534318904,-3.1240017303\C,0
 ,0.7862344781,-1.2900902539,-1.9882978152\C,0,-0.7293270546,0.53097739
 17,-1.497222998\C,0,-1.1009732157,-0.8143079051,-3.4725103157\C,0,-1.4
 672415972,0.2400199822,-2.6356503246\C,0,2.2091963102,-0.6082273189,0.
 3625147692\H,0,1.6469763185,-1.9063545036,-1.7786152213\H,0,-1.0101995
 324,1.3490973009,-0.8438879974\H,0,-1.6630253994,-1.0564229561,-4.3628
 685792\H,0,-2.3379914137,0.8383166508,-2.8771506872\H,0,2.5555454274,-
 0.1419430583,1.2815271559\H,0,1.9587363803,-1.6546913561,0.5559254298\
 H,0,2.9947583011,-0.548822358,-0.3954210491\\Version=ES64L-G16RevC.01\
 HF=-551.0732171\S2=2.03526\S2-1=0.\S2A=2.000554\RMSD=6.644e-09\PG=C01 
 [X(C7H7N1O3)]\\@
 The archive entry for this job was punched.


 WE HAVE LEARNED THAT NOTHING IS SIMPLE AND
 RATIONAL EXCEPT WHAT WE OURSELVES HAVE INVENTED;
 THAT GOD THINKS IN TERMS NEITHER OF EUCLID OR RIEMANN; THAT SCIENCE HAS "EXPLAINED" NOTHING;
 THAT THE MORE WE KNOW THE MORE FANTASTIC THE WORLD BECOMES
 AND THE PROFOUNDER THE SURROUNDING DARKNESS.
   --  ALDOUS HUXLEY
 Job cpu time:       0 days  1 hours 29 minutes 49.9 seconds.
 Elapsed time:       0 days  0 hours 22 minutes 57.1 seconds.
 File lengths (MBytes):  RWF=    351 Int=      0 D2E=      0 Chk=     15 Scr=      1
 Normal termination of Gaussian 16 at Fri Jun  7 13:19:35 2024.
