 Entering Gaussian System, Link 0=g16
 Initial command:
 /arc/software/Gaussian/g16.c01/l1.exe "/tmp/slurm/1118814/Gau-209864.inp" -scrdir="/tmp/slurm/1118814/"
 Entering Link 1 = /arc/software/Gaussian/g16.c01/l1.exe PID=    209865.
  
 Copyright (c) 1988-2019, Gaussian, Inc.  All Rights Reserved.
  
 This is part of the Gaussian(R) 16 program.  It is based on
 the Gaussian(R) 09 system (copyright 2009, Gaussian, Inc.),
 the Gaussian(R) 03 system (copyright 2003, Gaussian, Inc.),
 the Gaussian(R) 98 system (copyright 1998, Gaussian, Inc.),
 the Gaussian(R) 94 system (copyright 1995, Gaussian, Inc.),
 the Gaussian 92(TM) system (copyright 1992, Gaussian, Inc.),
 the Gaussian 90(TM) system (copyright 1990, Gaussian, Inc.),
 the Gaussian 88(TM) system (copyright 1988, Gaussian, Inc.),
 the Gaussian 86(TM) system (copyright 1986, Carnegie Mellon
 University), and the Gaussian 82(TM) system (copyright 1983,
 Carnegie Mellon University). Gaussian is a federally registered
 trademark of Gaussian, Inc.
  
 This software contains proprietary and confidential information,
 including trade secrets, belonging to Gaussian, Inc.
  
 This software is provided under written license and may be
 used, copied, transmitted, or stored only in accord with that
 written license.
  
 The following legend is applicable only to US Government
 contracts under FAR:
  
                    RESTRICTED RIGHTS LEGEND
  
 Use, reproduction and disclosure by the US Government is
 subject to restrictions as set forth in subparagraphs (a)
 and (c) of the Commercial Computer Software - Restricted
 Rights clause in FAR 52.227-19.
  
 Gaussian, Inc.
 340 Quinnipiac St., Bldg. 40, Wallingford CT 06492
  
  
 ---------------------------------------------------------------
 Warning -- This program may not be used in any manner that
 competes with the business of Gaussian, Inc. or will provide
 assistance to any competitor of Gaussian, Inc.  The licensee
 of this program is prohibited from giving any competitor of
 Gaussian, Inc. access to this program.  By using this program,
 the user acknowledges that Gaussian, Inc. is engaged in the
 business of creating and licensing software in the field of
 computational chemistry and represents and warrants to the
 licensee that it is not a competitor of Gaussian, Inc. and that
 it will not use this program in any manner prohibited above.
 ---------------------------------------------------------------
  

 Cite this work as:
 Gaussian 16, Revision C.01,
 M. J. Frisch, G. W. Trucks, H. B. Schlegel, G. E. Scuseria, 
 M. A. Robb, J. R. Cheeseman, G. Scalmani, V. Barone, 
 G. A. Petersson, H. Nakatsuji, X. Li, M. Caricato, A. V. Marenich, 
 J. Bloino, B. G. Janesko, R. Gomperts, B. Mennucci, H. P. Hratchian, 
 J. V. Ortiz, A. F. Izmaylov, J. L. Sonnenberg, D. Williams-Young, 
 F. Ding, F. Lipparini, F. Egidi, J. Goings, B. Peng, A. Petrone, 
 T. Henderson, D. Ranasinghe, V. G. Zakrzewski, J. Gao, N. Rega, 
 G. Zheng, W. Liang, M. Hada, M. Ehara, K. Toyota, R. Fukuda, 
 J. Hasegawa, M. Ishida, T. Nakajima, Y. Honda, O. Kitao, H. Nakai, 
 T. Vreven, K. Throssell, J. A. Montgomery, Jr., J. E. Peralta, 
 F. Ogliaro, M. J. Bearpark, J. J. Heyd, E. N. Brothers, K. N. Kudin, 
 V. N. Staroverov, T. A. Keith, R. Kobayashi, J. Normand, 
 K. Raghavachari, A. P. Rendell, J. C. Burant, S. S. Iyengar, 
 J. Tomasi, M. Cossi, J. M. Millam, M. Klene, C. Adamo, R. Cammi, 
 J. W. Ochterski, R. L. Martin, K. Morokuma, O. Farkas, 
 J. B. Foresman, and D. J. Fox, Gaussian, Inc., Wallingford CT, 2019.
 
 ******************************************
 Gaussian 16:  ES64L-G16RevC.01  3-Jul-2019
                 6-Jun-2024 
 ******************************************
 %chk=oNA.chk
 %mem=128GB
 %nprocshared=4
 Will use up to    4 processors via shared memory.
 ----------------------------------------------------------------------
 # opt M062X/6-311g* TDA=(triplet,root=1) scrf=(pcm,solvent=water) SCF=
 (XQC,Tight,MaxCycle=512,Guess=Mix) int=ultrafine Nosymm
 ----------------------------------------------------------------------
 QPErr --- A syntax error was detected in the input line.
 ) SCF=(XQC,Tight,MaxCycle=512,Guess=Mix)
                               '
 Last state= "SCF2"
 TCursr=    140563 LCursr=        94
 Error termination via Lnk1e in /arc/software/Gaussian/g16.c01/l1.exe at Thu Jun  6 13:56:45 2024.
 Job cpu time:       0 days  0 hours  0 minutes  0.1 seconds.
 Elapsed time:       0 days  0 hours  0 minutes  0.1 seconds.
 File lengths (MBytes):  RWF=      6 Int=      0 D2E=      0 Chk=      1 Scr=      1
Error: segmentation violation
   rax 0x0000000000000000, rbx 0xffffffffffffffff, rcx 0xffffffffffffffff
   rdx 0x00000000000333c9, rsp 0x00007ffffff50af8, rbp 0x000000000092f2e0
   rsi 0x000000000000000b, rdi 0x00000000000333c9, r8  0x0000000000641490
   r9  0x0000000043032300, r10 0x00007ffffff4fee0, r11 0x0000000000000202
   r12 0x00007ffffff50c28, r13 0x00007ffffff50c18, r14 0x00007ffffff50c28
   r15 0x00007ffffff50c20
  /usr/lib/gcc/x86_64-redhat-linux/4.8.5/../../../../lib64/libpthread.so.0(+0xf630) [0x2aaaaacde630]
  /usr/lib/gcc/x86_64-redhat-linux/4.8.5/../../../../lib64/libc.so.6(kill+0x7) [0x2aaaab223657]
  /arc/software/Gaussian/g16.c01/l1.exe() [0x4083f3]
